formula,composition,e0025,e05,e10,band0,band1,spacegroup,mattersim_energy_per_atom,mattersim_e_hull,vasp_energy_per_atom,dft_e_hull,N_excess,band_gap,electride,full_dft_e_hull
Rb4Cl3_s019,Rb4Cl3,0.0,49.663803257478925,45.95971014221858,42.86361866794384,0.0,59,-2.984531947544643,0.0203507968357632,-2.9682777457142855,0.0452910189285717,1.0,0.0,True,0.04529101892857179
Cs5Br3_s005,Cs5Br3,0.0,61.148045460387465,61.27723801644648,58.21693696566286,0.0,12,-2.476233959197998,0.0205673426389694,-2.467476915,0.0454214005172413,2.0,0.0,True,0.045421400517241306
K6Cl5_s004,K6Cl5,0.0,28.770122884450505,29.326616071670884,29.583360593965413,0.0,164,-3.197522596879439,0.0194912281903349,-3.1741369863636364,0.0456284133636359,1.0,0.0,True,0.04562841336363599
Cs4S1_s003,Cs4S1,0.0,84.22728104147647,84.81747889006986,84.79638269732895,0.0,139,-2.093528938293457,0.0038394689559937,-2.073349606,0.0456847448275867,2.0,0.0,True,0.045684744827586776
Rb6Cl5_s002,Rb6Cl5,0.0,44.04365784434288,44.67206673251782,43.29385375669862,0.0,47,-3.1062008250843394,0.024052836678245,-3.091020682727273,0.0457623056818179,1.0,,True,0.04576230568181794
Cs3S1_s003,Cs3S1,66.86788321706987,64.83203947281987,67.14245506053325,64.22977143221586,0.0,63,-2.391010284423828,0.0202848762273788,-2.379032689375,0.0459096561422414,1.0,0.0,True,0.045909656142241406
Cs3S1_s086,Cs3S1,0.0,47.2323391374953,48.39603765328328,55.29587267450593,45.500250052979176,58,-2.391009569168091,0.0202855914831161,-2.37900469,0.0459376555172412,1.0,0.0,True,0.04593765551724127
Cs6O1_s027,Cs6O1,65.57282854327036,87.8007335016059,88.22392829464826,87.42226746515489,89.46296024440966,162,-1.834319387163435,0.0365462439400807,-1.8605731114285715,0.0460111708866992,4.0,0.0,True,0.04601117088669926
Y2S1_s053,Y2S1,27.791542216421096,6.0753358319213255,19.665530365309785,5.8225623441643695,39.277065315782,99,-6.9664111667209205,0.0377811855740013,-6.97262443,0.0464408277777774,4.0,0.0,True,0.04644082777777747
Na7Cl6_s005,Na7Cl6,0.0,33.884463198513494,35.2526885660402,36.2981109149145,0.0,71,-3.19308090209961,0.0317185658674974,-3.1827637707692307,0.0464897641114063,1.0,0.0,True,0.04648976411140637
K10Cl9_s007,K10Cl9,0.0,25.99561796450176,27.2251538817914,26.5780065286927,0.0,47,-3.299020064504523,0.0079471374812873,-3.2619833621052634,0.046597467210526,1.0,0.0,True,0.046597467210526045
Li7F6_s001,Li7F6,28.138452488935236,28.138452488935236,27.86270800255697,28.571801010039216,0.0,166,-4.610067123021835,0.0234707563351355,-4.572595810769231,0.0466864235897439,1.0,0.0,True,0.04668642358974395
Cs4S1_s015,Cs4S1,75.29244016568605,82.17538934102731,82.86427263136855,40.37291143993807,79.51136801996581,18,-2.096885871887207,0.0004825353622437,-2.07205828,0.0469760708275868,2.0,0.0,True,0.04697607082758681
Na8I7_s013,Na8I7,26.196873794157906,26.80064399688215,27.207187933601755,27.740427972609588,0.0,25,-2.5984130859375,0.0010722001393634,-2.55503214,0.0469847155632181,1.0,0.0,True,0.04698471556321859
Rb4Br3_s006,Rb4Br3,0.0,38.88051024934271,39.96175286074511,39.61221505631964,0.0,156,-2.726008551461356,0.0365582193647111,-2.7247484285714285,0.0470364503571429,1.0,0.0,True,0.04703645035714299
K5Br4_s013,K5Br4,0.0,33.368901230648525,33.94618337406216,34.17064410024725,0.0,166,-2.8834943418149597,0.0243196178365634,-2.8631300425925925,0.047225707074074,1.0,0.0,True,0.04722570707407403
Rb5Br4_s052,Rb5Br4,48.71462568556575,50.51101330488893,51.24174109299694,50.3610342424615,0.0,71,-2.7830566830105252,0.0471509827507863,-2.7908775733333333,0.0472499280555558,1.0,0.0,True,0.047249928055555834
Sc3N2_s007,Sc3N2,0.0,10.709628794336185,52.51731891351541,0.0,48.81289720941789,71,-8.62353286743164,0.0267908881692324,-8.62068238,0.047451422117648,3.0,0.0,True,0.04745142211764808
K5Br4_s002,K5Br4,0.0,30.92442540648399,30.97570180506507,34.13567885816552,0.0,164,-2.8834925757514105,0.0243213839001126,-2.8628141155555555,0.047541634111111,1.0,0.0,True,0.04754163411111101
Li6N1_s038,Li6N1,81.600720876166,67.5801845891287,39.15173984607875,78.73904975664783,32.65649462974437,139,-3.001852035522461,0.0484175000871927,-2.9920415071428574,0.0445588057142853,3.0,0.0,True,0.04782959690476085
Rb8I7_s020,Rb8I7,0.0,51.71218896284323,51.71218896284323,46.75535904518884,0.0,69,-2.646445719401042,-0.0249242464701335,-2.5920349995,0.0480494806666667,1.0,0.051200000000000134,True,0.0480494806666667
K6O1_s014,K6O1,0.0,91.87878237589854,91.6313759497555,91.397632227854,89.83860619451939,162,-2.1062680653163364,-0.025278159550258,-2.0470114628571427,0.0482643011428574,4.0,0.0,True,0.0482643011428574
Sc4N3_s035,Sc4N3,0.0,33.51667557712732,34.23720243392736,20.354043929710063,31.68103263644221,166,-8.840302240280877,-0.0212620620300132,-8.786687021904763,0.0482799728641456,3.0,0.0,True,0.04827997286414565
Sc5N4_s009,Sc5N4,26.29851881256096,27.711376999390676,27.464644540679583,16.384167911704353,25.352499738256544,164,-8.931081136067709,-0.0183096119001806,-8.879336393333334,0.0483157084640524,3.0,0.0,True,0.04831570846405242
K6I5_s011,K6I5,0.0,26.295772995372342,26.702146949879506,26.856166867312197,0.0,164,-2.6300619298761543,0.0160315145145757,-2.605491806363636,0.0483448797272729,1.0,0.0,True,0.04834487972727297
K7Cl6_s022,K7Cl6,0.0,24.2643614736296,24.745752153247043,24.69487680485521,0.0,156,-3.230623098520132,0.0192583065766553,-3.2037895884615386,0.0484276028461536,1.0,0.0,True,0.04842760284615366
Y3N2_s075,Y3N2,0.0,33.514366271215295,26.862384391090536,24.607897883128206,8.193716054782318,35,-8.517308807373047,0.0417345046997077,-8.545994659,0.0179638556666663,3.0,0.0,True,0.04846066566666707
Cs4Cl3_s004,Cs4Cl3,53.67251182893376,58.7288943821489,59.51568191713956,56.91632304344255,0.0,65,-2.9173592158726285,0.0402976359639848,-2.9248239600000003,0.0487360702955665,1.0,0.0,True,0.04873607029556659
K8Br7_s005,K8Br7,33.20775269678957,36.67809342844956,37.38001116086792,36.61723616508342,0.0,47,-2.997456359863281,0.0017172416051232,-2.951563252666667,0.0487903371333331,1.0,0.0,True,0.04879033713333314
Y3N2_s030,Y3N2,20.898988549807523,35.2788362120673,38.36773630259008,26.37110002101718,28.01251451618557,156,-8.527268981933593,0.0317743301391608,-8.545307928666666,0.0186505859999996,3.0,0.0,True,0.0491473960000004
Na4Cl3_s009,Na4Cl3,0.0,20.35416979462436,20.233889170013423,21.37778692632696,0.0,160,-3.042423793247768,0.0455552850450788,-3.0438931295238096,0.0491655309688012,1.0,0.0,True,0.049165530968801274
Sr10S9_s001,Sr10S9,0.0,25.600548729541146,25.600548729541146,25.600548729541146,0.0,83,-4.8370361328125,0.04111963824222,-4.829923914210527,0.0494009307017533,2.0,0.16740000000000022,True,0.04940093070175333
Y4N3_s011,Y4N3,0.0,25.020910625442028,46.411331933921865,0.0,37.70713552211076,47,-8.660696302141462,0.0492228099278051,-8.69671055,0.0170684933333316,3.0,0.0,True,0.0497436469047603
K4O1_s019,K4O1,87.54164930005122,88.23885090874998,86.78444793681278,84.78754904297489,0.0,139,-2.4715978622436525,0.009539556503296,-2.439412753,0.0498137378,2.0,0.0,True,0.04981373780000009
Y5P4_s028,Y5P4,21.925473082872102,26.740507043458024,24.04925029079823,4.507177772583809,23.03061346403526,156,-7.410132514105903,0.0289032194349498,-7.400770997222223,0.0426170020370371,3.0,0.0,True,0.05171303325396703
Y3P2_s007,Y3P2,0.0,43.06945067870876,40.315666520102575,0.0,39.26785630656956,164,-7.304850769042969,0.0349596023559568,-7.301958849,0.0437374616666677,3.0,0.0,True,0.05192388976190543
Y4N3_s032,Y4N3,0.0,25.58335199909445,35.083765263374175,14.640578387472852,31.23368592434636,156,-8.665627615792411,0.0442914962768554,-8.685598138571429,0.0281809047619034,3.0,0.0,True,0.060856058333332186
Ca2P1_s055,Ca2P1,19.03380201378398,41.56841547781531,44.21210668503199,16.81182114210466,42.820458500505154,123,-3.9984529283311634,-0.1367568704817037,-3.971329963333334,-0.1028440350000003,1.0,0.0,True,0.07583347055555478
Ca3P1_s030,Ca3P1,69.48796273714464,59.0249347736689,57.811593953902666,69.62845523371305,65.98335795039375,63,-3.4946465492248535,-0.099411447842916,-3.4595453475,-0.05678093125,3.0,0.0,True,0.07722719791666632
Ca3P1_s026,Ca3P1,30.711123643489387,60.56965437133936,62.0144299710428,62.561485331592905,64.57435370957234,63,-3.4479691982269287,-0.0527340968449911,-3.443074688125,-0.0403102718749996,3.0,0.0,True,0.09369785729166669
Ca7P4_s015,Ca7P4,20.68733279182407,23.25458874450385,24.039306002112927,26.93870943270588,0.0,42,-4.203365325927734,-0.172047102090084,-4.1253659940909095,-0.0875267886363637,2.0,0.0,True,0.10739412651515146
Ca3P1_s031,Ca3P1,29.4807232626816,72.50344103814773,68.66411466104014,70.19893654446027,60.51212878561954,63,-3.4938619136810303,-0.0986268122990927,-3.425746333125,-0.022981916875,3.0,0.0,True,0.11102621229166632
Ca3P1_s094,Ca3P1,0.0,72.21218112155341,72.46855689218685,71.7607154641209,68.96550350921639,71,-3.472987174987793,-0.0777520736058554,-3.42571379625,-0.02294938,3.0,0.0,True,0.11105874916666636
Ca5P2_s005,Ca5P2,61.726595514278046,39.61997795816076,40.98199258496839,35.27916959895831,35.51160146513187,156,-3.693262917654855,-0.0981159777868363,-3.6435003828571433,-0.0411410328571433,4.0,0.0,True,0.11201111476190428
Ca3P1_s002,Ca3P1,59.60903901222174,65.50154185942716,68.05955204098741,66.04523394187952,56.830116175090886,164,-3.4647915363311768,-0.0695564349492392,-3.42314472,-0.0203803037499996,3.0,0.0,True,0.11362782541666672
Ca3P1_s110,Ca3P1,29.375971470234592,16.13144400095822,16.651763650465814,42.86954766747843,55.832360451568654,166,-3.464592615763346,-0.0693575143814086,-3.4162017949999997,-0.0134373787499995,3.0,0.0,True,0.12057075041666687
Ca2P1_s027,Ca2P1,36.30047290716432,29.90056435734008,29.799061155963123,24.203398551146748,0.0,63,-4.026089668273926,-0.1643936104244661,-3.921980099166667,-0.0534941708333334,1.0,0.0,True,0.12518333472222176
Ca3P1_s037,Ca3P1,79.13364944269952,59.30696968508583,73.36214874116783,23.665629365446748,70.5213381291633,167,-3.452727953592936,-0.0574928522109985,-3.404991899166667,-0.0022274829166666,3.0,0.0,True,0.13178064624999974
Ca2P1_s051,Ca2P1,29.18410644112453,31.75381127191528,29.755163877710483,22.20637882905817,29.191829714952256,160,-3.998729564525463,-0.1370335066760031,-3.907504957407407,-0.0390190290740739,1.0,0.0,True,0.1396584764814821
Ca2P1_s056,Ca2P1,14.874652479184174,33.710076229939304,32.48122303560604,13.32753039530014,32.32060212481823,99,-3.952959272596571,-0.0912632147471113,-3.900443603333333,-0.0319576749999996,1.0,0.0,True,0.14671983055555549
Ca5P2_s013,Ca5P2,0.0,20.023275615104467,37.21717333938389,3.2068691730032373,44.61752103430394,156,-3.693263190133231,-0.0981162502652122,-3.603555022857143,-0.0011956728571429,4.0,0.0,True,0.15195647476190466
Ca5P2_s009,Ca5P2,7.978404265974381,48.265359365838,48.68438768588717,30.181724900317853,48.22001342262986,31,-3.666251046316965,-0.0711041064489457,-3.6017246985714286,0.0006346514285713,4.0,0.09739999999999993,True,0.15378679904761894
Ca3P1_s046,Ca3P1,0.0,68.10597591436502,71.21472711162137,61.38898046212877,66.26439993202627,164,-3.4647910594940186,-0.069555958112081,-3.3766082875,0.0261561287500002,3.0,0.0,True,0.16016425791666666