formula,composition,e0025,e05,e10,band0,band1,spacegroup,mattersim_energy_per_atom,mattersim_e_hull,vasp_energy_per_atom,dft_e_hull,N_excess,band_gap,electride,full_dft_e_hull
Ca5P3_s021,Ca5P3,0.0,24.271368711791368,22.783124015163736,24.18767494014632,0.0,193,-4.324450969696045,-0.2295244336128235,-4.302358878125,-0.2010121937499995,1.0,0.0,True,0.0
Li7N2_s005,Li7N2,24.56011110566328,23.774304143939915,0.0,47.1542473862949,0.0,166,-3.6664742363823786,0.0198915269639754,-3.6681756803703705,-0.0050878974074075,1.0,0.0,True,0.0
Ba2P1_s001,Ba2P1,63.23360426152521,58.28417645183782,57.90862135309249,62.05875205340813,0.0,166,-3.895776112874349,0.0237559676170344,-3.9066333822222226,-0.0045425963888892,1.0,0.0,True,0.0
Y9N8_s013,Y9N8,0.0,24.687663989857107,24.74137761707956,23.648628182098783,25.525021737933063,148,-8.932314405254289,-0.0005191167195626,-8.969981950196079,-0.0358786000000019,3.0,0.0,True,0.0
Y8P7_s013,Y8P7,0.0,0.0,21.36391410620993,0.0,20.545643344096018,65,-7.50478261311849,-0.0161341985066734,-7.501784676333333,-0.0095508327777764,3.0,0.0,True,0.0
Ba2P1_s040,Ba2P1,60.6105356338397,57.981837344842326,57.45025404079266,59.45945130214877,62.0363765512251,160,-3.895776536729601,0.0237555437617826,-3.905318835555556,-0.0032280497222223,1.0,0.0,True,0.0013145466666664163
Ba2P1_s038,Ba2P1,19.583857675561685,57.48736937844806,57.12683463170919,59.291488316714826,61.55439401560552,156,-3.895776112874349,0.0237559676170344,-3.904358034444445,-0.002267248611111,1.0,0.0,True,0.0022753477777781583
Ba2P1_s025,Ba2P1,58.2338577476799,58.25904497686308,57.35505957946009,59.39109286351078,0.0,164,-3.895776112874349,0.0237559676170344,-3.90355977,-0.0014689841666664,1.0,0.0,True,0.003073612222222799
Ba2P1_s003,Ba2P1,59.356727406790725,56.31838108789791,56.220962396932194,54.10002209020588,59.8044843999983,36,-3.895776430765787,0.0237556497255959,-3.903181268333333,-0.0010904824999995,1.0,0.0,True,0.003452113888889663
Y8P7_s004,Y8P7,0.0,21.64202507846117,20.68039993488227,0.0,20.67872870592228,47,-7.501874796549479,-0.0132263819376623,-7.498158589333333,-0.0059247457777766,3.0,0.0,True,0.003626086999999778
Li7N1_s007,Li7N1,0.0,14.566412122479564,27.510136485967703,10.527704727189125,25.28768193606344,148,-2.859121322631836,0.0480265617370605,-2.8927528904166664,0.002887741666667,4.0,0.0,True,0.005749683958333307
Rb8O3_s018,Rb8O3,47.29775665777497,48.88027371316921,44.15951152938149,49.86298930581042,50.1185290235692,166,-2.8237457275390625,-0.0042830033735796,-2.812048186060606,0.0062007588484851,2.0,0.1644,True,0.006200758848485144
Li5N1_s001,Li5N1,88.14322737538093,85.33331274469826,77.98751372910944,74.91982981178828,0.0,87,-3.191584269205729,0.049514134724935,-3.220806638333333,0.0037399155555557,2.0,0.0,True,0.007555838611111199
Y8N7_s015,Y8N7,0.0,28.12894735438322,28.507888719013003,26.78338401705193,28.077970768457096,65,-8.901616414388021,0.0094704310099267,-8.939127335,-0.0255875867777799,3.0,0.0,True,0.009992024888889617
Y8P7_s012,Y8P7,0.0,29.608557869645807,23.755857688499702,0.0,31.40595371318628,225,-7.518631998697916,-0.0299835840861,-7.491163771833333,0.001070071722224,3.0,0.0,True,0.010620904500000528
Y8N7_s001,Y8N7,0.0,24.68005231157855,23.528626308842817,0.0,21.5655841612381,47,-8.894119262695312,0.0169675827026356,-8.936776502666667,-0.0232367544444471,3.0,0.0,True,0.012342857222222392
Li4N1_s028,Li4N1,0.0,7.19919918896027,33.48924179205076,10.3669354532959,26.42288011488956,156,-3.478102111816406,0.0301567077636724,-3.4796810093333335,0.0079902820000001,1.0,0.0,True,0.012569389666666098
Y4N3_s001,Y4N3,0.0,35.557897694984646,35.08457797316639,26.6268079324391,24.58563032135408,166,-8.700158255440849,0.0097608566284179,-8.73321393904762,-0.0194348957142871,3.0,0.0,True,0.013240257857141557
Y7P6_s020,Y7P6,0.0,25.254147953826852,20.477886936392206,0.0,22.50836535271146,71,-7.481133094200721,-0.00393375983605,-7.475538876923077,0.0054228487179495,3.0,0.0,True,0.014868727289377048
Li4N1_s019,Li4N1,78.88292184072138,0.0,0.0,71.20561830040998,0.0,166,-3.472936248779297,0.0353225708007816,-3.476790997333333,0.0108802940000005,1.0,0.0,True,0.015459401666666484
Li4N1_s021,Li4N1,60.85930045540139,18.012904883907225,15.760720064964785,52.73327903266821,0.0,194,-3.4670490264892577,0.0412097930908208,-3.476772094,0.0108991973333338,1.0,0.0,True,0.01547830499999936
Y7N6_s006,Y7N6,3.253638737131469,23.99566948130838,24.03416728181837,0.0,21.583044883676205,71,-8.86563697228065,0.0183696013230552,-8.905830234615385,-0.0191813505128219,3.0,0.0,True,0.016007276410256566
Y6P5_s020,Y6P5,0.0,26.467384744938503,19.33841412081312,0.0,21.85494489169407,47,-7.465068470348012,-0.003481518138539,-7.458566896363636,0.0070237593939399,3.0,0.0,True,0.016326518593073658
Cs10Br9_s004,Cs10Br9,0.0,38.76438703683763,38.76438703683763,38.5494083402978,0.0,83,-2.947647496273643,-0.0152830607012695,-2.921104319473684,0.0174508232667878,1.0,0.0,True,0.017450823266787818
Ba2N1_s032,Ba2N1,52.76226466465827,56.80185566876037,55.61480544171108,59.42523758937994,0.0,36,-4.44044303894043,-2.1192762567068257e-07,-4.445609276666667,0.0176694966666666,1.0,0.0,True,0.017669496666666618
Ba2N1_s002,Ba2N1,0.0,58.227798846972114,56.57337714008569,57.055536079933646,0.0,164,-4.440441767374675,1.0596381292415913e-06,-4.444830706666667,0.0184480666666662,1.0,0.0,True,0.018448066666666207
Y9N8_s025,Y9N8,0.0,25.387589711454904,23.94853963315649,0.0,20.79599383555284,139,-8.91126116584329,0.0205341226914352,-8.95132032382353,-0.0172169736274536,3.0,0.0,True,0.018661626372548312
Y5P4_s005,Y5P4,0.0,30.533869415532187,23.36401916940121,0.0,27.41428723213249,71,-7.440950181749132,-0.0019144482082795,-7.433764977222221,0.0096230220370383,3.0,0.0,True,0.018719053253968276
Y8N7_s018,Y8N7,0.0,27.868960802673364,25.32741660204365,0.0,24.23130676418391,65,-8.891423543294271,0.0196633021036767,-8.930356693666665,-0.0168169454444448,3.0,0.0,True,0.018762666222224667
Ba2N1_s001,Ba2N1,0.0,58.00560039818091,56.593060326208,55.82889478769415,0.0,166,-4.440441555447048,1.2715657558004525e-06,-4.444491196666666,0.0187875766666669,1.0,0.0,True,0.018787576666666972
Y5N4_s036,Y5N4,32.236572904159964,4.00102262848112,24.43416901672604,10.579649103375685,23.701837182742945,59,-8.784344991048178,0.0093940099080391,-8.811698287222221,-0.0146856168518514,3.0,0.0,True,0.019199727592594584
Ba2N1_s014,Ba2N1,52.8162994103817,56.92415423763273,55.66838086392541,59.48610636484375,0.0,186,-4.440442721048991,1.0596381283534129e-07,-4.44353432,0.0197444533333328,1.0,0.0,True,0.019744453333332856
Cs10I9_s021,Cs10I9,0.0,38.10390540064122,38.10390540064122,37.57010373423462,0.0,83,-2.6698855349892066,-0.0325731258643302,-2.637459366842105,0.0202744790562614,1.0,0.0,True,0.020274479056261452
Cs7Br6_s025,Cs7Br6,0.0,35.937544641879185,36.77296680693732,34.745044507724955,0.0,71,-2.8669906029334435,0.0117660623330335,-2.8655767688461538,0.0205898413129976,1.0,0.0,True,0.02058984131299768
Y6N5_s011,Y6N5,0.0,29.480235831757025,29.92511624409492,0.0,25.50718410817021,47,-8.823330965909092,0.0237479643388223,-8.863993286363636,-0.0140137624242431,3.0,0.0,True,0.020641703484848506
Y3N2_s002,Y3N2,0.0,47.3705828282676,46.84588825596786,35.90702461694926,43.83127747114662,164,-8.537065887451172,0.021977424621582,-8.573251594,-0.0092930793333341,3.0,0.0,True,0.021203730666666587
Sc8N7_s016,Sc8N7,0.0,22.723526067328763,21.71969324456163,2.536092200368574,21.44065043512279,65,-9.039656575520834,0.0042321014404294,-9.035965851333334,0.021316787333335,3.0,0.0,True,0.021316787333335085
Cs10Cl9_s026,Cs10Cl9,0.0,38.323237731756016,38.48379672013223,38.32878118562172,0.0,83,-3.198476891768606,-0.0180836759115519,-3.1707805115789474,0.0215329564246826,1.0,0.0,True,0.02153295642468267
Cs8Cl7_s004,Cs8Cl7,30.90155004910931,31.59251441178253,31.925817083716908,30.710864389143044,0.0,47,-3.141152191162109,0.0045931458473207,-3.1364621653333336,0.0218229901379309,1.0,0.0,True,0.021822990137930987
Cs8Br7_s011,Cs8Br7,0.0,47.68557735126165,48.05717320431485,47.650075811628525,0.0,65,-2.9049809773763022,-0.003589920202891,-2.8858778026666667,0.0224084101379311,1.0,0.0,True,0.022408410137931156
Y4P3_s001,Y4P3,0.0,30.87545192543837,29.68689354760601,0.0,29.251440932215697,166,-7.384860084170387,0.0187380200340632,-7.394519872380952,0.0139782380952384,3.0,0.0,True,0.022749411054421742
Y5P4_s045,Y5P4,0.0,34.05766458658368,24.897866153134817,0.0,30.62646679091953,59,-7.437657674153645,0.001378059387207,-7.429670476666668,0.013717522592592,3.0,0.0,True,0.02281355380952199
Y8N7_s009,Y8N7,0.0,29.10932049164943,27.610503477315028,0.0,24.80443552340906,123,-8.885884602864584,0.0252022425333642,-8.926197928666666,-0.0126581804444452,3.0,0.0,True,0.022921431222224342
Y5N4_s003,Y5N4,37.48699976237682,40.982098321947625,41.96959706573476,0.0,37.8866015843308,87,-8.773228115505642,0.0205108854505748,-8.807951235555556,-0.0109385651851869,3.0,0.0,True,0.02294677925925903
Ba6Br11_s029,Ba6Br11,0.0,35.242183222839046,35.242183222839046,33.42940215295072,0.0,21,-3.9010041180778954,-0.0095796129282783,-3.872706871176471,0.0230631864705879,1.0,0.0,True,0.023063186470587915
Cs8Cl7_s027,Cs8Cl7,32.19593363356753,33.73440628341791,33.73440628341791,32.752021415045206,0.0,65,-3.149819183349609,-0.0040738463401792,-3.1343141423333334,0.0239710131379311,1.0,0.0,True,0.023971013137931152
Li9N2_s005,Li9N2,19.38762895286903,30.474086457546928,20.605090602296137,24.29063159958993,42.61774148923394,156,-3.323272011496804,0.0392629450017754,-3.3243182336363635,0.0198304736363637,3.0,0.0,True,0.023993298787878814
Sc8N7_s028,Sc8N7,0.0,23.247317415869777,26.98365987895712,0.0,26.842279516381893,65,-9.039559936523435,0.0043287404378258,-9.033239214,0.0240434246666687,3.0,0.0,True,0.024043424666668756
Sc3N2_s004,Sc3N2,0.0,27.058000825821203,44.31709564223554,0.0,43.22050708323593,164,-8.666605377197266,-0.0162816215963932,-8.643923478000001,0.0242103241176465,3.0,0.0,True,0.024210324117646564
Ba10S9_s029,Ba10S9,22.85250412880517,23.95561491888438,24.269347096189385,26.36838641850253,0.0,65,-4.9111986662212175,0.020725833742242,-4.913946068421052,0.0245540810526314,2.0,,True,0.02455408105263146
Cs6Br5_s010,Cs6Br5,0.0,42.03459117945302,43.01575902367348,40.58872292219053,0.0,47,-2.8318618427623403,0.0160297426310447,-2.8314318272727275,0.0245716883699058,1.0,0.0,True,0.024571688369905864
Cs8Cl7_s005,Cs8Cl7,0.0,44.20152613749656,44.70442966082496,44.19153375511473,0.0,123,-3.1495590209960938,-0.0038136839866638,-3.1336858566666668,0.0245992988045977,1.0,0.0,True,0.02459929880459777
Li9N2_s020,Li9N2,14.986316568941756,27.82048993720978,20.654766259671,45.80926438374194,42.70462707499966,12,-3.323844562877308,0.0386903936212714,-3.323640330454545,0.0205083768181819,3.0,0.0,True,0.024671201969697076
Na8Cl7_s007,Na8Cl7,0.0,20.880700062230662,20.880700062230662,21.19077201997794,0.0,160,-3.2265567355685763,0.0195259041256372,-3.225675296222222,0.024764108007663,1.0,0.0,True,0.024764108007663044
Y8N7_s024,Y8N7,0.0,25.136350547432897,25.602583486398466,0.0,20.35966850665389,139,-8.88304443359375,0.0280424118041988,-8.924262064333334,-0.0107223161111136,3.0,0.0,True,0.024857295555555936
Na7Br6_s024,Na7Br6,0.0,22.868670658769258,22.62185803978108,23.273273284011907,0.0,166,-2.8974464612129407,0.023288769599719,-2.898905532307692,0.0250478194960215,1.0,0.0,True,0.02504781949602153
Cs7Cl6_s012,Cs7Cl6,35.31638225745329,36.11693493010292,36.50860385121632,35.12115473002048,0.0,71,-3.1112940861628604,0.009131647073306,-3.108354614230769,0.0250636974668441,1.0,0.0,True,0.025063697466844115
Cs8I7_s022,Cs8I7,0.0,47.43344729464936,47.43344729464936,46.64374875361887,0.0,65,-2.639484151204427,-0.0287739793459573,-2.606219062333333,0.025406169137931,1.0,0.0,True,0.025406169137931034
Y5N4_s005,Y5N4,0.0,32.24040321879526,34.03919477692462,0.0,32.146815592547526,71,-8.766806708441841,0.0269322925143757,-8.805253272777778,-0.0082406024074082,3.0,0.0,True,0.025644742037037815
Cs5O1_s072,Cs5O1,0.0,87.52414348749443,88.09116499841939,86.61510799979538,89.04533244429626,79,-2.0170844395955405,0.0253151575724284,-2.0494685425,0.0256460581896549,3.0,0.0,True,0.02564605818965493
Sc4N3_s006,Sc4N3,0.0,0.0,33.478418331961784,0.0,32.11593745694123,166,-8.837650844029017,-0.0186106657781532,-8.809295643809524,0.0256713509593851,3.0,0.0,True,0.02567135095938511
Cs4Br3_s036,Cs4Br3,0.0,37.39586699823543,38.748490063003466,36.53678339552567,0.0,166,-2.71644301641555,0.0168068437349226,-2.7182493528571428,0.0257198117241381,1.0,0.0,True,0.025719811724138175
Y3P2_s001,Y3P2,0.0,43.32261233160797,39.67302247707629,0.0,40.18372308466886,164,-7.309998321533203,0.0298120498657228,-7.327528556,0.0181677546666678,3.0,0.0,True,0.026354182761905598
Y5N4_s011,Y5N4,0.0,30.80835962420115,35.00226303089218,5.006523443001098,31.367840085659356,59,-8.766333685980904,0.0274053149753132,-8.804490628888889,-0.0074779585185194,3.0,0.0,True,0.02640738592592662
Cs8Cl7_s028,Cs8Cl7,0.0,47.42363037549489,47.70299365932485,47.41909037397302,0.0,65,-3.1520179748535155,-0.0062726378440856,-3.131243288333333,0.0270418671379313,1.0,0.0,True,0.02704186713793133
Y8N7_s017,Y8N7,0.0,24.735660431245485,26.935822105221856,0.0,21.05517800577185,123,-8.880628458658855,0.0304583867390935,-8.922035886,-0.0084961377777794,3.0,0.0,True,0.027083473888890097
Na7Cl6_s016,Na7Cl6,0.0,23.938660078170702,23.938660078170702,24.30803378154022,0.0,156,-3.2030633779672475,0.0217360899998593,-3.201915036153846,0.0273384987267908,1.0,0.0,True,0.02733849872679084
Cs8Br7_s003,Cs8Br7,0.0,49.62889557553589,49.62889557553589,48.68934437907883,0.0,65,-2.904851531982422,-0.0034604748090107,-2.8805676793333332,0.0277185334712646,1.0,0.0,True,0.027718533471264628
Y2S1_s033,Y2S1,26.69655665677729,14.876966299491912,31.102721672641685,11.651137220029709,40.58698895935078,160,-6.983162350124783,0.0210300021701392,-6.991333843888889,0.0277314138888886,4.0,0.0,True,0.027731413888888667
Sc8N7_s001,Sc8N7,0.0,24.112107998232418,22.629292671599323,0.0,21.43975245191682,47,-9.034781901041669,0.0091067759195961,-9.029416934666669,0.0278657040000016,3.0,0.0,True,0.02786570399999988
Y4P3_s014,Y4P3,0.0,41.8242555794392,32.19722830489399,0.0,37.61158614752957,59,-7.399566650390625,0.004031453813825,-7.389383172857143,0.0191149376190473,3.0,0.0,True,0.02788611057823065
Cs6Br5_s003,Cs6Br5,0.0,59.22649315883507,59.53496532752723,58.5950866380736,0.0,65,-2.8430463617498223,0.0048452236435627,-2.827953187272727,0.0280503283699062,1.0,0.0,True,0.028050328369906286
Rb6Br5_s008,Rb6Br5,0.0,26.471432525978813,27.13347209647829,27.22583595597821,0.0,164,-2.8588529066606,0.0143989649685947,-2.8513397881818183,0.0290057456818177,1.0,0.0,True,0.029005745681817796
Y2S1_s077,Y2S1,43.98179109681793,37.51224826234039,59.4424778110469,24.217571931988164,46.53585855758569,166,-6.994608985053168,0.0095833672417535,-6.989815386666667,0.0292498711111104,4.0,0.0,True,0.029249871111110437
Na6Cl5_s002,Na6Cl5,0.0,27.62696039785132,27.62696039785132,28.175544762958687,0.0,164,-3.17252592606978,0.0232510349967265,-3.1710713254545455,0.0292923875862065,1.0,0.0,True,0.02929238758620656
Na10Br9_s026,Na10Br9,0.0,23.73896318838036,24.08106454607187,23.86427951190983,0.0,47,-2.950815301192434,0.0123257511540462,-2.936618827368421,0.029477368076225,1.0,0.0,True,0.02947736807622503
Cs4Cl3_s001,Cs4Cl3,0.0,36.25561026697182,39.07158388546512,36.65649975820286,0.0,166,-2.944719768705822,0.0129370831307911,-2.9440781695238094,0.0294818607717575,1.0,0.0,True,0.029481860771757518
Y3N2_s007,Y3N2,0.0,46.718606949825855,46.20591017333582,30.101696627573027,43.524853173555975,164,-8.53135986328125,0.0276834487915049,-8.564940909,-0.0009823943333344,3.0,0.0,True,0.02951441566666624
Cs6Cl5_s002,Cs6Cl5,41.07788714860817,42.00048792648752,42.45249854353363,40.806816368739504,0.0,47,-3.070833379572088,0.0150656212459909,-3.0699907509090907,0.0295182283699064,1.0,0.0,True,0.029518228369906474
Cs8I7_s004,Cs8I7,0.0,50.3056598206288,50.3056598206288,46.8187355738715,0.0,65,-2.639459991455078,-0.0287498195966082,-2.6019475316666667,0.0296776998045973,1.0,0.0,True,0.029677699804597335
Cs5Br4_s040,Cs5Br4,0.0,50.80662291442368,51.9992592789545,49.02188122731085,0.0,71,-2.7848868899875217,0.0184218022558426,-2.7824242744444443,0.0300103268965519,1.0,0.0,True,0.03001032689655192
Na6Br5_s002,Na6Br5,0.0,26.871952866641323,26.58390487333403,27.35669172941456,0.0,164,-2.8678829886696557,0.028436769138683,-2.86961153,0.0300777603134796,1.0,0.0,True,0.03007776031347964
Cs4Cl3_s018,Cs4Cl3,0.0,37.53278900678799,39.07783058016634,38.716862796505694,0.0,166,-2.9447199503580728,0.0129369014785405,-2.943437327142857,0.0301227031527098,1.0,0.0,True,0.030122703152709818
Y3N2_s005,Y3N2,49.74911539241366,12.383644876067128,42.227669368550266,25.133345678569984,39.75443283802756,59,-8.5373779296875,0.0216653823852546,-8.564223923,-0.0002654083333339,3.0,0.0,True,0.030231401666666713
Y2S1_s035,Y2S1,40.48943077033351,60.388139925294205,66.35877390396897,58.61898281611663,67.19618429694138,164,-6.995373407999675,0.0088189442952471,-6.988772133333334,0.0302931244444435,4.0,0.0,True,0.030293124444443542
Y5N4_s006,Y5N4,0.0,8.328185381278969,28.58763641776373,0.0,25.14677342891348,164,-8.788247002495659,0.0054919984605579,-8.800536475555555,-0.0035238051851855,3.0,0.0,True,0.03036153925926044
Li5N1_s013,Li5N1,0.0,19.75947872359056,72.67212922459647,68.8406571270972,46.509154311955335,166,-3.1997532314724393,0.0413451724582247,-3.197715016666667,0.0268315372222218,2.0,0.0,True,0.030647460277777316
Na8Cl7_s025,Na8Cl7,0.0,23.56403255992476,23.744221191797937,24.28766386802184,0.0,123,-3.2318125406901044,0.0142700990041091,-3.2191211226666665,0.0313182815632187,1.0,0.0,True,0.0313182815632187
Y2S1_s034,Y2S1,0.0,0.0,35.755746586432444,4.195200001449333,77.79269211806937,166,-6.994027879503038,0.0101644727918834,-6.987646882222222,0.031418375555555,4.0,0.0,True,0.031418375555555045
Rb6Cl5_s008,Rb6Cl5,0.0,27.287909029868217,28.008505736768573,28.130786323449687,0.0,164,-3.1175641146573154,0.012689547105269,-3.104730266363636,0.0320527220454547,1.0,,True,0.03205272204545473
Y2S1_s042,Y2S1,0.0,13.058021350135965,26.44709654434915,6.824220645718855,23.86911459659435,156,-6.994869232177734,0.0093231201171875,-6.986936563333334,0.0321286944444434,4.0,0.0,True,0.03212869444444344
Na7Cl6_s015,Na7Cl6,0.0,23.51288699324022,23.51288699324022,24.00508132531923,0.0,156,-3.196966317983774,0.0278331499833326,-3.1967478961538465,0.0325056387267905,1.0,0.0,True,0.032505638726790576
Rb5Br4_s001,Rb5Br4,0.0,28.16744761929112,28.88061033286232,28.91318488535206,28.924728478216267,166,-2.8103550098560475,0.019852655905264,-2.805438645925926,0.0326888554629629,1.0,0.0,True,0.03268885546296296
Cs5S1_s057,Cs5S1,0.0,43.19783269055258,43.53298543804143,45.30763412720618,0.0,87,-1.892108917236328,-0.0040250122547149,-1.8822623383333337,0.0328333493678161,3.0,0.0,True,0.0328333493678159
Ba6S5_s004,Ba6S5,25.63383024264848,24.118083826204725,26.500611678208568,25.96657147205008,0.0,123,-4.775341033935547,0.0341737595471469,-4.783425965454546,0.0330731654545441,2.0,0.0,True,0.033073165454544196
Li4P1_s062,Li4P1,63.387728415576646,55.901227332231926,59.70070663502931,54.50603545645816,57.98496548860793,62,-3.1272600173950194,0.042281341552735,-3.1337354435,0.0333218208333336,1.0,0.0,True,0.03332182083333368
Sc7N6_s013,Sc7N6,0.0,21.15921796609669,23.150245417299985,0.0,20.622886366310688,71,-9.003612811748798,0.0101001618674434,-8.994073388846154,0.0333934435972871,3.0,0.0,True,0.03339344359728713
Y4N3_s022,Y4N3,10.133395757949248,28.17878685997642,29.58176150218668,19.947294940005783,31.65998451732162,156,-8.69232177734375,0.0175973347255169,-8.713059885,0.0007191583333323,3.0,0.0,True,0.033394311904761054
Cs8Cl7_s007,Cs8Cl7,50.01162809036482,46.90789035332635,46.90789035332635,45.69001998123069,0.0,69,-3.152318318684896,-0.006572981675466,-3.1248863813333334,0.0333987741379311,1.0,0.03740000000000032,True,0.03339877413793113