formula,composition,e0025,e05,e10,band0,band1,spacegroup,mattersim_energy_per_atom,mattersim_e_hull,vasp_energy_per_atom,dft_e_hull,N_excess,band_gap,electride,full_dft_e_hull
Na6Br5_s017,Na6Br5,0.0,26.223980469629137,26.05361329273077,26.71119036352759,0.0,156,-2.864214637062766,0.0321051207455727,-2.866099639090909,0.0335896512225706,1.0,0.0,True,0.03358965122257063
Y2S1_s083,Y2S1,22.511094002363524,46.33121289050887,59.99149612385387,33.58709301386641,55.9899575165522,186,-6.9946238199869795,0.0095685323079424,-6.9854204200000005,0.0336448377777767,4.0,0.0,True,0.033644837777776715
Cs7I6_s014,Cs7I6,0.0,50.28720607142174,50.28720607142174,50.64330511509054,0.0,148,-2.6136104877178488,-0.0223404123232917,-2.578785310769231,0.0337605486206893,1.0,0.0,True,0.033760548620689335
Na6Cl5_s015,Na6Cl5,0.0,27.699151887278266,27.699151887278266,28.12601547783959,0.0,156,-3.1672990972345527,0.0284778638319536,-3.1663821090909092,0.0339816039498428,1.0,0.0,True,0.03398160394984284
Sr2N1_s002,Sr2N1,0.0,60.53294621452886,57.493720115968,63.31130771925404,63.655734840097935,166,-4.438726213243273,4.2385525134136515e-07,-4.417298036666667,0.0341347699999996,1.0,0.0,True,0.03413476999999965
Li6P1_s027,Li6P1,0.0,42.10975003786028,41.61187485190316,41.68800162972813,55.87229429502021,59,-2.7672691345214844,0.0410593577793667,-2.773384645714286,0.0342056478571426,3.0,0.0,True,0.03420564785714264
Y3P2_s011,Y3P2,0.0,38.35863101062406,40.19267053898212,0.0,40.441363071068245,164,-7.304560852050781,0.0352495193481443,-7.319674233000001,0.026022077666667,3.0,0.0,True,0.03420850576190482
Na7I6_s019,Na7I6,0.0,21.112988496584723,20.776451006505948,21.697902258360404,0.0,166,-2.5643187302809496,0.0209888494931735,-2.5535623726923076,0.034394136034483,1.0,0.0,True,0.03439413603448305
Sc6N5_s013,Sc6N5,0.0,24.83081371961078,27.48075490676009,0.0,24.135540626634928,47,-8.95726151899858,0.0151572252977327,-8.952092321818183,0.0345412117245977,3.0,0.0,True,0.03454121172459779
Rb10Br9_s022,Rb10Br9,0.0,40.51946539379773,40.56365242885544,40.30447825325684,0.0,83,-2.9676589965820312,-0.012849682255795,-2.925578454736842,0.0347591406578944,1.0,0.0,True,0.03475914065789443
Y4P3_s032,Y4P3,27.757823987000567,33.91058895370265,31.304990262501924,10.940706059698975,28.18574206495196,186,-7.385074615478516,0.0185234887259344,-7.382366901428571,0.0261312090476195,3.0,0.0,True,0.034902382006802846
Sc5N4_s003,Sc5N4,0.0,25.12297665814241,31.27268499333984,0.0,29.384158147753222,71,-8.895717196994358,0.0170543271731702,-8.892493196111111,0.0351589056862753,3.0,0.0,True,0.03515890568627533
Y2S1_s047,Y2S1,26.63434837532026,38.45433433698918,41.70094817128975,29.2912802178394,38.1410510528702,156,-6.985859764946832,0.0183325873480901,-6.983801031111111,0.0352642266666665,4.0,0.0,True,0.03526422666666651
Sc6N5_s003,Sc6N5,5.188650915003683,3.3456544936805965,22.9318317960428,0.0,21.380959715976623,164,-8.987498890269887,-0.0150801459735738,-8.951095493636364,0.0355380399064166,3.0,0.0,True,0.035538039906416685
Cs5Cl4_s001,Cs5Cl4,50.28791236138933,50.7889740112532,51.407435113616565,49.35977278512397,0.0,71,-3.0010772281222873,0.0349498258696665,-3.0149467772222223,0.0355820552298853,1.0,0.0,True,0.035582055229885334
Na11O5_s031,Na11O5,0.0,38.74358954917504,38.757846283547046,39.77387621979253,0.0,47,-3.559396743774414,0.0304011851549148,-3.553801558125,0.0356120914655169,1.0,0.0,True,0.035612091465516915
Sr2N1_s090,Sr2N1,0.0,40.94832159244413,38.11211472806273,40.62767869910122,41.52423700428484,166,-4.4387257893880205,8.477105035709087e-07,-4.415718265,0.0357145416666666,1.0,0.0,True,0.035714541666666655
Sr2N1_s049,Sr2N1,0.0,41.2498919415558,38.413271610717295,42.017420107634585,41.95329872190062,166,-4.4387257893880205,8.477105035709087e-07,-4.415711912777778,0.0357208938888886,1.0,0.0,True,0.03572089388888866
Sc8N7_s007,Sc8N7,0.0,0.0,29.0918272242006,0.0,29.15828673429699,225,-9.024833170572917,0.0190555063883461,-9.021471394333334,0.0358112443333347,3.0,0.0,True,0.03581124433333471
Y4P3_s022,Y4P3,16.34222366342001,33.346873120198744,30.72655803919674,13.766417047359855,27.923462665703635,166,-7.384310767764137,0.0192873364403132,-7.381406226428572,0.0270918840476186,3.0,,True,0.035863057006801924
Na5Cl4_s002,Na5Cl4,0.0,33.20028759751943,33.20028759751943,33.831898377613115,0.0,166,-3.1234088473849826,0.0304467148251004,-3.1227408351851853,0.0358931351979565,1.0,0.0,True,0.03589313519795656
Rb5Cl4_s042,Rb5Cl4,0.0,31.389341057407627,32.248900355844015,32.38196178625622,32.39952960985272,166,-3.0634485880533853,0.0180497169494628,-3.0529098674074073,0.035956478425926,1.0,0.0,True,0.035956478425926086
Y4N3_s008,Y4N3,0.0,34.3340756183593,42.42514835974499,5.307975311339731,38.76486759270762,59,-8.67344502040318,0.0364740916660863,-8.710487265714287,0.0032917776190455,3.0,0.0,True,0.03596693119047423
Sr2N1_s029,Sr2N1,26.716038100936373,26.524936853493003,23.144535020577145,27.64820447953735,28.128764290004625,166,-4.4387257893880205,8.477105035709087e-07,-4.415368425925926,0.0360643807407408,1.0,,True,0.03606438074074081
Sr2N1_s008,Sr2N1,0.0,57.63868342226728,56.82274912693877,63.55017796406563,0.0,186,-4.438727060953776,-4.238552522295436e-07,-4.415296978333333,0.0361358283333332,1.0,0.0,True,0.036135828333333286
Li6N1_s005,Li6N1,42.53623423864206,42.4965890470428,0.0,77.51220029867261,0.0,164,-3.005650384085519,0.0446191515241345,-3.00367119,0.0329291228571428,3.0,0.0,True,0.03619991404761835
K6O1_s009,K6O1,0.0,33.19120380420764,34.52303091556493,38.734615778925566,0.0,58,-2.106271743774414,-0.0252818380083357,-2.0588996028571427,0.0363761611428574,4.0,0.0,True,0.036376161142857466
Rb6O1_s009,Rb6O1,0.0,60.82484096186342,58.29372714196795,89.7118657167576,0.0,58,-1.9347889763968331,0.0102695396968297,-1.929638142857143,0.0364339798214286,4.0,0.0,True,0.0364339798214286
Na10I9_s029,Na10I9,21.013891079138343,21.528092222221037,21.85293112703796,22.227820124752363,0.0,47,-2.6271161531147205,-0.0082297952551591,-2.5847480668421055,0.0365092633393828,1.0,0.0,True,0.03650926333938287
Sc5N4_s021,Sc5N4,0.0,0.0,32.641769056323525,0.0,29.80368184140229,59,-8.898599412706163,0.0141721114613648,-8.891044405555554,0.0366076962418322,3.0,0.0,True,0.036607696241832244
Sr2N1_s001,Sr2N1,56.48732556089172,59.18784004462516,56.880190272320384,62.91366811365632,0.0,164,-4.4387251536051435,1.4834933805829564e-06,-4.414795106666666,0.0366376999999999,1.0,0.0,True,0.036637699999999995
Na7Cl5_s020,Na7Cl5,0.0,22.229549302526657,22.229549302526657,37.759088881442,0.0,139,-3.0146735509236655,0.0238981644312543,-3.006910162916667,0.0369670151580461,2.0,0.0,True,0.036967015158046124
Cs3Br2_s019,Cs3Br2,53.47218296295263,55.74240762399716,55.43676603912713,54.20365104982975,0.0,59,-2.596285820007324,0.0108581423759464,-2.583602206,0.0371291724137932,1.0,0.0,True,0.03712917241379321
Cs4Cl3_s024,Cs4Cl3,0.0,36.39148243277104,38.077087138701735,36.861150981003966,0.0,156,-2.9356226239885603,0.0220342278480529,-2.936276906428571,0.0372831238669957,1.0,0.0,True,0.03728312386699573
Rb9Br8_s029,Rb9Br8,43.0364891973568,44.32069939104223,44.35077976071186,43.892111431321,0.0,139,-2.949399835923139,-0.0077836373273063,-2.9100524576470588,0.0373452454411764,1.0,0.0,True,0.037345245441176456
Na5Br4_s001,Na5Br4,0.0,31.83641735875424,31.467806624550956,32.40601731800959,0.0,166,-2.824887028446904,0.0361659350218595,-2.827287195185185,0.0373540063090676,1.0,0.0,True,0.0373540063090676
Ba6S5_s022,Ba6S5,0.0,22.969822196325023,22.385035713290502,22.415070138636956,0.0,164,-4.7753823020241475,0.0341324914585463,-4.7788403181818175,0.0376588127272725,2.0,0.0,True,0.03765881272727256
Li7N1_s008,Li7N1,61.15615796775224,20.240727622948505,21.425612236511853,38.77809402366457,74.95885962300528,164,-2.8608241081237793,0.0463237762451171,-2.86079860125,0.0348420308333334,4.0,0.0,True,0.037703973124999735
Rb4O1_s018,Rb4O1,84.54140279113095,86.22240378538709,86.59007092530288,84.44204126254104,84.22330585001095,65,-2.317203712463379,0.0228365707397464,-2.313827447,0.0377065238000002,2.0,0.0,True,0.03770652380000028
Na8Br7_s006,Na8Br7,32.19449472326887,35.61537757391072,36.90300877248015,36.889243653118456,0.0,47,-2.9250918070475262,0.013548103968302,-2.904037648,0.0377093488965516,1.0,0.0,True,0.03770934889655164
Na7I6_s022,Na7I6,0.0,21.15968663286265,20.830744380781457,21.78859289100837,0.0,156,-2.5565000680776744,0.0288075116964487,-2.5500975815384614,0.0378589271883291,1.0,0.0,True,0.03785892718832917
K5O1_s072,K5O1,91.43409986842828,90.84391167039423,89.90924185768924,90.03887382798995,88.00346478304304,87,-2.258188565572103,-0.0104705293973288,-2.2214385683333333,0.0379833318333333,3.0,0.0,True,0.037983331833333356
Rb8Cl7_s022,Rb8Cl7,33.908610531411355,35.77542257569328,36.39066512284714,35.40813849429077,0.0,47,-3.1875829060872394,0.0011771837870284,-3.1562813113333332,0.0380016481666665,1.0,0.0,True,0.03800164816666651
Ba8S7_s028,Ba8S7,0.0,32.17103234390966,32.17103234390966,34.10714288798876,0.0,65,-4.865354410807291,0.0216865301132207,-4.8555491323333335,0.0382173103333327,2.0,0.0,True,0.038217310333332755
Na8Br7_s024,Na8Br7,0.0,29.726589396259698,30.18467994100758,29.87898996704224,0.0,25,-2.919108581542969,0.0195313294728594,-2.903500284,0.0382467128965515,1.0,0.0,True,0.03824671289655157
Na8Br7_s002,Na8Br7,0.0,29.861649689456293,30.32106459539347,30.027198653824023,0.0,47,-2.9191083272298175,0.0195315837860108,-2.9034813313333334,0.0382656655632183,1.0,0.0,True,0.03826566556321831
Y5P4_s002,Y5P4,26.527283980495618,28.12569814457881,25.60716580287251,14.96815631392815,23.303706204308973,164,-7.425631205240886,0.0134045282999668,-7.414027838888889,0.0293601603703708,3.0,0.0,True,0.038456191587300737
Rb4Br3_s004,Rb4Br3,0.0,0.0,41.254450475542455,40.53509754369374,0.0,166,-2.7377577282133556,0.0248090426127114,-2.7332293057142856,0.0385555732142859,1.0,0.0,True,0.03855557321428593
Y6N5_s005,Y6N5,0.0,32.38489144664196,33.681808058021616,0.0,26.318233116401583,65,-8.80938720703125,0.037691723216664,-8.845901298636363,0.0040782253030293,3.0,0.0,True,0.038733691212121
Cs4Br3_s001,Cs4Br3,0.0,61.657791173677424,63.019317326451215,59.63184469682447,0.0,47,-2.6876882825578963,0.045561577592577,-2.7052057314285713,0.0387634331527095,1.0,0.0,True,0.03876343315270958
Y3P2_s004,Y3P2,0.0,50.66052404927125,42.09879841025992,0.0,50.49737396544444,71,-7.325663757324219,0.0141466140747068,-7.315065675,0.0306306356666681,3.0,0.0,True,0.03881706376190586
Sc4N3_s008,Sc4N3,0.0,23.211743785000184,39.6719724957866,0.0,36.87667642455128,59,-8.7989501953125,0.020089982938364,-8.796028287142857,0.0389387076260518,3.0,0.0,True,0.038938707626051894
Rb5O1_s006,Rb5O1,43.55075833257094,44.37502299893693,44.78449784259914,44.525309567774286,31.939729860214523,87,-2.087919394175211,0.0252717733383178,-2.0913659233333335,0.0389625410416663,3.0,0.0,True,0.0389625410416663
Ba10O9_s003,Ba10O9,0.0,25.0614216550076,25.411070492769568,29.043503487844653,0.0,65,-5.6724600540964225,0.0448821030165023,-5.664397070526316,0.0389696231578948,2.0,0.0,True,0.03896962315789487
K5O1_s001,K5O1,93.3440657560488,91.06375351882144,88.77399980937919,90.04876247283394,88.1273245284403,71,-2.258184274037679,-0.010466237862905,-2.2200347725,0.0393871276666666,3.0,0.0,True,0.03938712766666663
Rb8Br7_s024,Rb8Br7,0.0,46.49377670087652,47.81375143073301,45.92229091663978,0.0,139,-2.9217488606770834,0.0031560579935709,-2.8915809766666665,0.0394261961666666,1.0,0.0,True,0.03942619616666665
Rb10Cl9_s023,Rb10Cl9,0.0,41.50655654347498,41.33883293119601,41.65245977677255,0.0,83,-3.235478451377467,-0.0128462189122249,-3.1879105726315786,0.0396618438157894,1.0,0.0,True,0.03966184381578941
Na8Cl7_s028,Na8Cl7,0.0,38.63518675681042,39.17022451882943,38.83527341534503,0.0,47,-3.22573954264323,0.0203430970509841,-3.210560540666667,0.0398788635632181,1.0,0.0,True,0.039878863563218125
K8Cl7_s011,K8Cl7,0.0,21.55464638211009,21.976196257458177,22.15992787234308,0.0,12,-3.2615392049153646,0.0124450922012329,-3.2360567906666664,0.0399583811333337,1.0,0.0,True,0.03995838113333372
Cs3Cl2_s023,Cs3Cl2,0.0,66.44344027732461,54.387709018146126,49.29919121301079,0.0,156,-2.797379493713379,0.0192109942436218,-2.7950424519999997,0.0399737344137935,1.0,0.0,True,0.039973734413793593
Li7P1_s042,Li7P1,0.0,30.46287388668739,18.610307990043847,7.056558285652626,27.652317555164142,129,-2.6485090255737305,0.0469404458999633,-2.655186705625,0.0400701595833337,4.0,0.0,True,0.04007015958333371
Sc8N7_s004,Sc8N7,0.0,0.0,25.47906257942972,0.0,23.280298143077875,123,-9.023600260416666,0.0202884165445969,-9.017196438,0.0400862006666677,3.0,0.0,True,0.04008620066666779
Y3P2_s062,Y3P2,20.75718115225356,40.22915470523844,38.90898391308875,27.756238919315116,28.553074477998607,62,-7.3122406005859375,0.0275697708129882,-7.313721451499999,0.0319748591666684,3.0,0.0,True,0.04016128726190615
Na8Cl7_s003,Na8Cl7,0.0,29.44199185075471,30.875501732763997,31.21201363942978,0.0,47,-3.2221036275227863,0.0239790121714271,-3.2102429266666666,0.0401964775632186,1.0,0.0,True,0.04019647756321865
Na9Cl7_s016,Na9Cl7,0.0,37.16829520063652,37.04041620980208,38.03665261380179,0.0,164,-3.0866096019744873,0.0384249985218048,-3.089480536875,0.0404642354310347,2.0,0.0,True,0.04046423543103472
Rb6O1_s031,Rb6O1,0.0,28.977383458952804,30.28912316236217,61.66894043423794,60.987077332979865,148,-1.9347879318963912,0.0102705841972714,-1.9253657266666664,0.0407063960119049,4.0,,True,0.04070639601190518
Na6O1_s020,Na6O1,0.0,89.75292096972952,69.95076533937683,88.54760491199815,87.68052113723932,58,-2.313300813947405,0.0385201317923411,-2.3178493,0.0409678133990145,4.0,0.0,True,0.04096781339901456
Na6I5_s006,Na6I5,0.0,24.930747517999524,24.538011982129408,25.69898441573446,0.0,164,-2.5363903045654297,0.0295840393413198,-2.527796087272727,0.0409872212225703,1.0,0.0,True,0.04098722122257037
Rb6O1_s020,Rb6O1,0.0,32.10789476947991,27.50107174023637,90.20421774042072,82.74012008518595,163,-1.9347870690482003,0.0102714470454625,-1.9249801692857145,0.0410919533928573,4.0,0.0,True,0.041091953392857095
Cs3I2_s068,Cs3I2,0.0,0.0,49.92545528379771,49.869095969238366,0.0,166,-2.3687370300292967,-0.0107481122016905,-2.342397214,0.041196180413793,1.0,0.0,True,0.04119618041379303
Sc4N3_s007,Sc4N3,0.0,0.0,28.097550616012377,0.0,28.84299106812904,59,-8.830899919782366,-0.0118597415315022,-8.793734562142857,0.0412324326260513,3.0,0.0,True,0.04123243262605136
Ba9O8_s005,Ba9O8,0.0,21.10033130411296,21.40440956434957,21.4124057786436,0.0,71,-5.6522064208984375,0.0402007173089424,-5.637367845882353,0.0412642611764697,2.0,0.0,True,0.04126426117646975
Sc5N4_s033,Sc5N4,0.0,0.0,22.45683526309507,0.0,24.311095958957576,59,-8.924005296495226,-0.0112337723276976,-8.886104901666666,0.0415472001307204,3.0,0.0,True,0.04154720013072044
Li9F8_s002,Li9F8,23.91508274499504,22.601985732991977,21.41273378801245,22.254658392756813,0.0,164,-4.6709303014418655,0.0161025103400733,-4.63086271,0.0415638256862758,1.0,0.0,True,0.04156382568627581
Rb3O1_s087,Rb3O1,82.97627390522622,80.33192060239195,75.56732884049788,79.000075234603,0.0,71,-2.6415321826934814,0.0281110286712644,-2.63053187,0.0418686455000001,1.0,0.0,True,0.041868645500000135
Rb6Br5_s005,Rb6Br5,0.0,42.70290507389522,43.38382375007132,42.0916435082904,0.0,47,-2.848078814419833,0.0251730572093618,-2.838473868181818,0.0418716656818181,1.0,0.0,True,0.041871665681818104
Rb4Cl3_s012,Rb4Cl3,0.0,38.89418466303383,39.86689817955641,40.00401040035214,40.093586634231634,166,-2.978761218843006,0.0261215255374001,-2.9714013333333336,0.0421674313095237,1.0,0.0,True,0.04216743130952372
Cs6O1_s019,Cs6O1,86.99228059460829,45.011305708486205,45.41681232440257,87.30559580932517,54.0998547199848,148,-1.834320068359375,0.0365455627441404,-1.864135006190476,0.0424492761247945,4.0,0.0,True,0.042449276124794766
Rb4Cl3_s025,Rb4Cl3,0.0,35.959899300353754,22.12126421807172,39.35120087557779,39.35441680196723,166,-2.9787601289295016,0.0261226154509044,-2.9709208214285714,0.0426479432142858,1.0,0.0,True,0.04264794321428589
Y3P2_s006,Y3P2,0.0,44.51887422069104,41.07655845546361,13.502890184538696,36.92878519375018,186,-7.310333251953125,0.0294771194458007,-7.311019574,0.0346767366666682,3.0,0.0,True,0.042863164761904216
K6Br5_s004,K6Br5,0.0,28.012947773682207,28.508809981990417,28.69921355261265,0.0,164,-2.931741541082209,0.0175995284860781,-2.9083367727272726,0.0429270860909087,1.0,0.0,True,0.042927086090908784
Cs4I3_s038,Cs4I3,0.0,62.40205486218975,62.40205486218975,58.72079920250041,0.0,65,-2.46960939679827,-0.0033113701002935,-2.446879927142857,0.0430128260098521,1.0,0.0,True,0.04301282600985212
Rb7Br5_s008,Rb7Br5,0.0,44.2595580253392,45.547957054366265,44.88246062464346,0.0,156,-2.6834545135498047,0.0283815860748291,-2.678951221666667,0.0430766904166666,2.0,0.0,True,0.04307669041666662
Ba6O5_s015,Ba6O5,0.0,20.668161608905365,20.45139302316349,20.95824157495622,0.0,164,-5.520422848788175,0.0427755550904711,-5.507265249545455,0.0431967268181807,2.0,0.0,True,0.043196726818180764
Li6P1_s020,Li6P1,22.17101001419958,23.90307044887417,16.012786031978006,15.386841457405422,27.95682334800737,164,-2.7659089224679128,0.0424195698329383,-2.764311731071429,0.0432785624999998,3.0,0.0,True,0.04327856249999984
Sc4N3_s026,Sc4N3,0.0,0.0,45.31254678578943,0.0,43.18821175550046,65,-8.77876445225307,0.0402757259977946,-8.791516352142857,0.0434506426260519,3.0,0.0,True,0.043450642626051916
K10Br9_s012,K10Br9,0.0,25.417825666304623,25.79548496460705,25.463931407877244,0.0,25,-3.0245052136872945,0.0035188009864399,-2.9852866231578945,0.0434873372105264,1.0,0.0,True,0.043487337210526444
Rb4O1_s046,Rb4O1,0.0,0.0,85.85407545923023,69.79755839295869,21.33389936914352,65,-2.317203903198242,0.0228363800048834,-2.308022256,0.0435117148000001,2.0,0.0,True,0.043511714800000156
K10Br9_s013,K10Br9,0.0,25.303940379878725,25.673490613813897,25.340476418052653,0.0,47,-3.024505615234375,0.0035183994393594,-2.985136667894737,0.0436372924736838,1.0,0.0,True,0.043637292473683864
Li8F7_s019,Li8F7,24.727554745338,24.727554745338,24.45234814170932,25.05111636358617,0.0,166,-4.644671291775174,0.0191803826226122,-4.605654516444445,0.0437428219999995,1.0,0.0,True,0.04374282199999957
Na6Br5_s008,Na6Br5,0.0,29.84676297337729,30.06054111468346,22.882293553650538,0.0,123,-2.8711329373446377,0.0251868204637011,-2.8559318581818185,0.0437574321316609,1.0,0.0,True,0.043757432131660945
Cs5Cl4_s046,Cs5Cl4,61.592031215124166,62.62538563595923,62.97964465280577,61.27788197150718,0.0,87,-3.0202630360921225,0.0157640178998312,-3.006719265,0.0438095674521075,1.0,0.0,True,0.04380956745210751
K4O1_s010,K4O1,86.51324401432088,85.43097446183808,85.1324844414302,85.1387543317618,0.0,65,-2.489717483520508,-0.0085800647735592,-2.445357358,0.0438691328000002,2.0,0.0,True,0.043869132800000266
Y4P3_s008,Y4P3,0.0,34.612938396721006,31.2701004264314,19.94073062720033,29.2755300773596,166,-7.385269891648066,0.0183282125563843,-7.373316274761904,0.0351818357142867,3.0,0.0,True,0.04395300867347007
Y4N3_s019,Y4N3,0.0,47.048190987084034,48.2973390322821,16.40773062713391,43.82730849165261,65,-8.661021641322545,0.0488974707467217,-8.702108184285715,0.0116708590476175,3.0,0.0,True,0.04434601261904625
Rb8Cl7_s029,Rb8Cl7,0.0,47.47004741188071,48.9241420500448,46.48128407204364,0.0,139,-3.1862548828125,0.0025052070617679,-3.1498371806666667,0.044445778833333,1.0,0.0,True,0.044445778833333005
Na4Cl3_s008,Na4Cl3,0.0,40.22623953071559,40.092643737862005,40.8542666758898,0.0,166,-3.040948232014974,0.0470308462778725,-3.0485941514285715,0.0444645090640394,1.0,0.0,True,0.044464509064039426
Y3N2_s022,Y3N2,0.0,21.095831361427177,10.56764616272016,25.54324874217625,0.0,129,-8.53085708618164,0.0281862258911136,-8.549412095,0.0145464196666669,3.0,0.0,True,0.04504322966666763
Rb6O1_s003,Rb6O1,90.08265188852928,91.2272479941478,91.3855390991666,90.64173581445492,90.33247812855694,162,-1.9347869328090124,0.0102715832846504,-1.9209781014285716,0.0450940212499999,4.0,,True,0.04509402124999995