formula,composition,e0025,e05,e10,band0,band1,spacegroup,mattersim_energy_per_atom,mattersim_e_hull,vasp_energy_per_atom,dft_e_hull
Cs4Cl3_s024,Cs4Cl3,0.0,36.39148243277104,38.077087138701735,36.861150981003966,0.0,156,-2.9356226239885603,0.02203422784805298,-2.936276906428571,0.03728312386699573
Li7N1_s007,Li7N1,0.0,14.566412122479564,27.510136485967703,10.527704727189125,25.28768193606344,148,-2.859121322631836,0.04802656173706055,-2.8927528904166664,0.002887741666667054
Y9N8_s013,Y9N8,0.0,24.687663989857107,24.74137761707956,23.648628182098783,25.525021737933063,148,-8.932314405254289,-0.0005191167195626178,-8.969981950196079,-0.03587860000000198
Cs6O1_s019,Cs6O1,86.99228059460829,45.011305708486205,45.41681232440257,87.30559580932517,54.0998547199848,148,-1.834320068359375,0.03654556274414045,-1.8641350061904762,0.042449276124794544
Cs7I6_s014,Cs7I6,0.0,50.28720607142174,50.28720607142174,50.64330511509054,0.0,148,-2.6136104877178488,-0.02234041232329176,-2.578785310769231,0.033760548620689335
Rb6O1_s031,Rb6O1,0.0,28.977383458952804,30.28912316236217,61.66894043423794,60.987077332979865,148,-1.9347879318963914,0.010270584197271448,-1.9253657266666666,0.040706396011904955
Rb9Br8_s029,Rb9Br8,43.0364891973568,44.32069939104223,44.35077976071186,43.892111431321,0.0,139,-2.949399835923139,-0.007783637327306359,-2.9100524576470588,0.037345245441176456
Y8N7_s024,Y8N7,0.0,25.136350547432897,25.602583486398466,0.0,20.35966850665389,139,-8.88304443359375,0.028042411804198863,-8.924262064333334,-0.010722316111113628
Rb8Br7_s024,Rb8Br7,0.0,46.49377670087652,47.81375143073301,45.92229091663978,0.0,139,-2.9217488606770834,0.003156057993570993,-2.8915809766666665,0.03942619616666665
Y9N8_s025,Y9N8,0.0,25.387589711454904,23.94853963315649,0.0,20.79599383555284,139,-8.91126116584329,0.020534122691435286,-8.95132032382353,-0.01721697362745367
Rb8Cl7_s029,Rb8Cl7,0.0,47.47004741188071,48.9241420500448,46.48128407204364,0.0,139,-3.1862548828125,0.0025052070617679334,-3.1498371806666667,0.044445778833333005
Cs4S1_s003,Cs4S1,0.0,84.22728104147647,84.81747889006986,84.79638269732895,0.0,139,-2.093528938293457,0.003839468955993741,-2.073349606,0.045684744827586776
Na7Cl5_s020,Na7Cl5,0.0,22.229549302526657,22.229549302526657,37.759088881442,0.0,139,-3.0146735509236655,0.023898164431254365,-3.006910162916667,0.036967015158046124
Li6N1_s038,Li6N1,81.600720876166,67.5801845891287,39.15173984607875,78.73904975664783,32.65649462974437,139,-3.001852035522461,0.0484175000871927,-2.9920415071428574,0.04455880571428539
K4O1_s019,K4O1,87.54164930005122,88.23885090874998,86.78444793681278,84.78754904297489,0.0,139,-2.4715978622436525,0.009539556503296076,-2.439412753,0.04981373780000009
K4O1_s013,K4O1,87.67081217739542,88.37038529595317,86.93720935067311,84.96167665581338,0.0,139,-2.4715974807739256,0.009539937973022994,-2.439341654,0.0498848368
Li7P1_s042,Li7P1,0.0,30.46287388668739,18.610307990043847,7.056558285652626,27.652317555164142,129,-2.6485090255737305,0.04694044589996338,-2.655186705625,0.04007015958333371
Y3N2_s022,Y3N2,0.0,21.095831361427177,10.56764616272016,25.54324874217625,0.0,129,-8.53085708618164,0.028186225891113637,-8.549412095,0.014546419666666921
Na8Cl7_s025,Na8Cl7,0.0,23.56403255992476,23.744221191797937,24.28766386802184,0.0,123,-3.2318125406901044,0.014270099004109138,-3.2191211226666665,0.0313182815632187
Ba6S5_s004,Ba6S5,25.63383024264848,24.118083826204725,26.500611678208568,25.96657147205008,0.0,123,-4.775341033935547,0.034173759547146965,-4.783425965454546,0.033073165454544196
Y8N7_s009,Y8N7,0.0,29.10932049164943,27.610503477315028,0.0,24.80443552340906,123,-8.885884602864584,0.025202242533364227,-8.926197928666666,-0.012658180444445222
Sc8N7_s004,Sc8N7,0.0,0.0,25.47906257942972,0.0,23.280298143077875,123,-9.023600260416666,0.0202884165445969,-9.017196438000001,0.04008620066666779
Cs8Cl7_s005,Cs8Cl7,0.0,44.20152613749656,44.70442966082496,44.19153375511473,0.0,123,-3.1495590209960938,-0.0038136839866638184,-3.1336858566666668,0.02459929880459777
Y8N7_s017,Y8N7,0.0,24.735660431245485,26.935822105221856,0.0,21.05517800577185,123,-8.880628458658855,0.030458386739093513,-8.922035886,-0.008496137777779467
Ca2P1_s055,Ca2P1,19.03380201378398,41.56841547781531,44.21210668503199,16.81182114210466,42.820458500505154,123,-3.9984529283311634,-0.1367568704817037,-3.971329963333334,-0.10284403500000039
Na6Br5_s008,Na6Br5,0.0,29.84676297337729,30.06054111468346,22.882293553650538,0.0,123,-2.8711329373446377,0.02518682046370113,-2.8559318581818185,0.043757432131660945
Y2S1_s053,Y2S1,27.791542216421096,6.0753358319213255,19.665530365309785,5.8225623441643695,39.277065315782,99,-6.9664111667209205,0.03778118557400134,-6.97262443,0.04644082777777747
Ca2P1_s056,Ca2P1,14.874652479184174,33.710076229939304,32.48122303560604,13.32753039530014,32.32060212481823,99,-3.952959272596571,-0.0912632147471113,-3.900443603333333,-0.031957674999999686
Rb5O1_s006,Rb5O1,43.55075833257094,44.37502299893693,44.78449784259914,44.525309567774286,31.939729860214523,87,-2.0879193941752114,0.02527177333831787,-2.0913659233333335,0.0389625410416663
K5O1_s072,K5O1,91.43409986842828,90.84391167039423,89.90924185768924,90.03887382798995,88.00346478304304,87,-2.258188565572103,-0.010470529397328843,-2.2214385683333333,0.037983331833333356
Y5N4_s003,Y5N4,37.48699976237682,40.982098321947625,41.96959706573476,0.0,37.8866015843308,87,-8.773228115505642,0.02051088545057489,-8.807951235555556,-0.010938565185186988
Cs5S1_s057,Cs5S1,0.0,43.19783269055258,43.53298543804143,45.30763412720618,0.0,87,-1.8921089172363281,-0.004025012254714966,-1.8822623383333335,0.03283334936781612
Cs5Cl4_s046,Cs5Cl4,61.592031215124166,62.62538563595923,62.97964465280577,61.27788197150718,0.0,87,-3.0202630360921225,0.015764017899831284,-3.006719265,0.04380956745210751
Rb5O1_s072,Rb5O1,0.0,44.24979378014192,44.53368361590621,43.964058506658674,38.709370330207015,87,-2.0879189173380532,0.025272250175476074,-2.0913845516666667,0.038943912708333084
Li5N1_s001,Li5N1,88.14322737538093,85.33331274469826,77.98751372910944,74.91982981178828,0.0,87,-3.191584269205729,0.049514134724935044,-3.220806638333333,0.0037399155555557506
Cs10I9_s021,Cs10I9,0.0,38.10390540064122,38.10390540064122,37.57010373423462,0.0,83,-2.6698855349892066,-0.032573125864330255,-2.637459366842105,0.020274479056261452
Rb10Cl9_s023,Rb10Cl9,0.0,41.50655654347498,41.33883293119601,41.65245977677255,0.0,83,-3.235478451377467,-0.012846218912224927,-3.1879105726315786,0.03966184381578941
Rb10Br9_s022,Rb10Br9,0.0,40.51946539379773,40.56365242885544,40.30447825325684,0.0,83,-2.9676589965820312,-0.01284968225579508,-2.925578454736842,0.03475914065789443
Cs10Cl9_s026,Cs10Cl9,0.0,38.323237731756016,38.48379672013223,38.32878118562172,0.0,83,-3.198476891768606,-0.01808367591155191,-3.1707805115789474,0.02153295642468267
Cs10Br9_s004,Cs10Br9,0.0,38.76438703683763,38.76438703683763,38.5494083402978,0.0,83,-2.947647496273643,-0.015283060701269502,-2.921104319473684,0.017450823266787818
Sr10S9_s001,Sr10S9,0.0,25.600548729541146,25.600548729541146,25.600548729541146,0.0,83,-4.8370361328125,0.04111963824222009,-4.829923914210527,0.04940093070175333
Cs5O1_s072,Cs5O1,0.0,87.52414348749443,88.09116499841939,86.61510799979538,89.04533244429626,79,-2.0170844395955405,0.025315157572428415,-2.0494685425,0.02564605818965493
Sc5N4_s003,Sc5N4,0.0,25.12297665814241,31.27268499333984,0.0,29.384158147753222,71,-8.895717196994358,0.017054327173170236,-8.892493196111111,0.03515890568627533
Sc3N2_s007,Sc3N2,0.0,10.709628794336185,52.51731891351541,0.0,48.81289720941789,71,-8.62353286743164,0.026790888169232474,-8.62068238,0.04745142211764808
Y3P2_s004,Y3P2,0.0,50.66052404927125,42.09879841025992,0.0,50.49737396544444,71,-7.325663757324219,0.014146614074706854,-7.315065675,0.030630635666668127
Y7P6_s020,Y7P6,0.0,25.254147953826852,20.477886936392206,0.0,22.50836535271146,71,-7.481133094200721,-0.003933759836050044,-7.475538876923077,0.005422848717949513
Cs7Cl6_s012,Cs7Cl6,35.31638225745329,36.11693493010292,36.50860385121632,35.12115473002048,0.0,71,-3.1112940861628604,0.009131647073306048,-3.108354614230769,0.025063697466844115
Cs5Br4_s040,Cs5Br4,0.0,50.80662291442368,51.9992592789545,49.02188122731085,0.0,71,-2.7848868899875217,0.018421802255842668,-2.7824242744444443,0.03001032689655192
K5O1_s001,K5O1,93.3440657560488,91.06375351882144,88.77399980937919,90.04876247283394,88.1273245284403,71,-2.258184274037679,-0.010466237862905015,-2.2200347725,0.03938712766666663
Cs7Br6_s025,Cs7Br6,0.0,35.937544641879185,36.77296680693732,34.745044507724955,0.0,71,-2.8669906029334435,0.011766062333033567,-2.8655767688461538,0.02058984131299768
Ba9O8_s005,Ba9O8,0.0,21.10033130411296,21.40440956434957,21.4124057786436,0.0,71,-5.6522064208984375,0.04020071730894248,-5.637367845882353,0.04126426117646975
Y5P4_s005,Y5P4,0.0,30.533869415532187,23.36401916940121,0.0,27.41428723213249,71,-7.440950181749132,-0.0019144482082795733,-7.433764977222221,0.009623022037038353
Rb3O1_s087,Rb3O1,82.97627390522622,80.33192060239195,75.56732884049788,79.000075234603,0.0,71,-2.6415321826934814,0.02811102867126447,-2.63053187,0.041868645500000135
Sc3N2_s006,Sc3N2,0.0,32.301078165566665,49.22382296637396,0.0,50.1388517231219,71,-8.62353286743164,0.026790888169232474,-8.620731328,0.0474024741176482
Na7Cl6_s005,Na7Cl6,0.0,33.884463198513494,35.2526885660402,36.2981109149145,0.0,71,-3.1930809020996094,0.03171856586749744,-3.1827637707692307,0.04648976411140637
Rb5Br4_s052,Rb5Br4,48.71462568556575,50.51101330488893,51.24174109299694,50.3610342424615,0.0,71,-2.7830566830105252,0.04715098275078633,-2.7908775733333333,0.047249928055555834
Sc7N6_s013,Sc7N6,0.0,21.15921796609669,23.150245417299985,0.0,20.622886366310688,71,-9.003612811748798,0.010100161867443447,-8.994073388846154,0.03339344359728713
Cs5Cl4_s001,Cs5Cl4,50.28791236138933,50.7889740112532,51.407435113616565,49.35977278512397,0.0,71,-3.0010772281222873,0.03494982586966655,-3.0149467772222223,0.035582055229885334
Y5N4_s005,Y5N4,0.0,32.24040321879526,34.03919477692462,0.0,32.146815592547526,71,-8.766806708441841,0.02693229251437579,-8.805253272777778,-0.008240602407408204
Ca3P1_s094,Ca3P1,0.0,72.21218112155341,72.46855689218685,71.7607154641209,68.96550350921639,71,-3.472987174987793,-0.07775207360585545,-3.42571379625,-0.02294938000000002
Rb3O1_s063,Rb3O1,80.97229707270313,79.08258397375243,79.94489091045925,78.6814560384293,0.0,71,-2.6415324211120605,0.02811079025268537,-2.63052733,0.041873185500000076
Y7N6_s006,Y7N6,3.253638737131469,23.99566948130838,24.03416728181837,0.0,21.583044883676205,71,-8.86563697228065,0.018369601323055207,-8.905830234615385,-0.019181350512821993
Rb8I7_s020,Rb8I7,0.0,51.71218896284323,51.71218896284323,46.75535904518884,0.0,69,-2.646445719401042,-0.024924246470133582,-2.5920349995,0.0480494806666667
Cs8Cl7_s007,Cs8Cl7,50.01162809036482,46.90789035332635,46.90789035332635,45.69001998123069,0.0,69,-3.152318318684896,-0.00657298167546605,-3.1248863813333334,0.03339877413793113
Y8N7_s018,Y8N7,0.0,27.868960802673364,25.32741660204365,0.0,24.23130676418391,65,-8.891423543294271,0.019663302103676727,-8.930356693666665,-0.016816945444444897
Ba10O9_s003,Ba10O9,0.0,25.0614216550076,25.411070492769568,29.043503487844653,0.0,65,-5.6724600540964225,0.044882103016502306,-5.664397070526316,0.03896962315789487
Y4N3_s019,Y4N3,0.0,47.048190987084034,48.2973390322821,16.40773062713391,43.82730849165261,65,-8.661021641322545,0.048897470746721794,-8.702108184285715,0.011670859047617554
Sc8N7_s028,Sc8N7,0.0,23.247317415869777,26.98365987895712,0.0,26.842279516381893,65,-9.039559936523437,0.004328740437825829,-9.033239214,0.024043424666668756
K4O1_s010,K4O1,86.51324401432088,85.43097446183808,85.1324844414302,85.1387543317618,0.0,65,-2.489717483520508,-0.008580064773559215,-2.445357358,0.043869132800000266
Cs4Cl3_s004,Cs4Cl3,53.67251182893376,58.7288943821489,59.51568191713956,56.91632304344255,0.0,65,-2.9173592158726285,0.040297635963984835,-2.9248239600000003,0.04873607029556659
Sc4N3_s026,Sc4N3,0.0,0.0,45.31254678578943,0.0,43.18821175550046,65,-8.77876445225307,0.04027572599779461,-8.791516352142857,0.043450642626051916
Sc8N7_s016,Sc8N7,0.0,22.723526067328763,21.71969324456163,2.536092200368574,21.44065043512279,65,-9.039656575520834,0.004232101440429403,-9.035965851333334,0.021316787333335085
Y6N5_s005,Y6N5,0.0,32.38489144664196,33.681808058021616,0.0,26.318233116401583,65,-8.80938720703125,0.03769172321666403,-8.845901298636363,0.00407822530302937
Rb4O1_s046,Rb4O1,0.0,0.0,85.85407545923023,69.79755839295869,21.33389936914352,65,-2.317203903198242,0.022836380004883416,-2.308022256,0.043511714800000156
Rb4O1_s018,Rb4O1,84.54140279113095,86.22240378538709,86.59007092530288,84.44204126254104,84.22330585001095,65,-2.317203712463379,0.02283657073974643,-2.313827447,0.03770652380000028
Cs4I3_s038,Cs4I3,0.0,62.40205486218975,62.40205486218975,58.72079920250041,0.0,65,-2.46960939679827,-0.003311370100293587,-2.446879927142857,0.04301282600985212
Cs8I7_s004,Cs8I7,0.0,50.3056598206288,50.3056598206288,46.8187355738715,0.0,65,-2.639459991455078,-0.028749819596608273,-2.6019475316666667,0.029677699804597335
Cs8I7_s022,Cs8I7,0.0,47.43344729464936,47.43344729464936,46.64374875361887,0.0,65,-2.639484151204427,-0.02877397934595738,-2.606219062333333,0.025406169137931034
Y8P7_s013,Y8P7,0.0,0.0,21.36391410620993,0.0,20.545643344096018,65,-7.50478261311849,-0.016134198506673414,-7.501784676333333,-0.009550832777776463
Cs6Br5_s003,Cs6Br5,0.0,59.22649315883507,59.53496532752723,58.5950866380736,0.0,65,-2.8430463617498223,0.004845223643562768,-2.827953187272727,0.028050328369906286
Cs8Br7_s011,Cs8Br7,0.0,47.68557735126165,48.05717320431485,47.650075811628525,0.0,65,-2.9049809773763022,-0.0035899202028910615,-2.8858778026666667,0.022408410137931156
Cs8Br7_s003,Cs8Br7,0.0,49.62889557553589,49.62889557553589,48.68934437907883,0.0,65,-2.904851531982422,-0.003460474809010794,-2.8805676793333332,0.027718533471264628
Ba8S7_s028,Ba8S7,0.0,32.17103234390966,32.17103234390966,34.10714288798876,0.0,65,-4.865354410807291,0.021686530113220748,-4.8555491323333335,0.038217310333332755
Ba10S9_s029,Ba10S9,22.85250412880517,23.95561491888438,24.269347096189385,26.36838641850253,0.0,65,-4.9111986662212175,0.020725833742242017,-4.913946068421052,0.02455408105263146
Cs8Cl7_s028,Cs8Cl7,0.0,47.42363037549489,47.70299365932485,47.41909037397302,0.0,65,-3.1520179748535155,-0.0062726378440856045,-3.131243288333333,0.02704186713793133
Y8N7_s015,Y8N7,0.0,28.12894735438322,28.507888719013003,26.78338401705193,28.077970768457096,65,-8.901616414388021,0.009470431009926727,-8.939127335,-0.025587586777779947
Cs8Cl7_s027,Cs8Cl7,32.19593363356753,33.73440628341791,33.73440628341791,32.752021415045206,0.0,65,-3.149819183349609,-0.004073846340179266,-3.1343141423333334,0.023971013137931152
Cs3S1_s003,Cs3S1,66.86788321706987,64.83203947281987,67.14245506053325,64.22977143221586,0.0,63,-2.391010284423828,0.020284876227378845,-2.379032689375,0.045909656142241406
Ca2P1_s027,Ca2P1,36.30047290716432,29.90056435734008,29.799061155963123,24.203398551146748,0.0,63,-4.026089668273926,-0.1643936104244661,-3.921980099166667,-0.05349417083333341
Ca3P1_s026,Ca3P1,30.711123643489387,60.56965437133936,62.0144299710428,62.561485331592905,64.57435370957234,63,-3.4479691982269287,-0.052734096844991196,-3.443074688125,-0.04031027187499969
Ca3P1_s030,Ca3P1,69.48796273714464,59.0249347736689,57.811593953902666,69.62845523371305,65.98335795039375,63,-3.4946465492248535,-0.099411447842916,-3.4595453475,-0.056780931250000055
Ca3P1_s031,Ca3P1,29.4807232626816,72.50344103814773,68.66411466104014,70.19893654446027,60.51212878561954,63,-3.4938619136810303,-0.09862681229909276,-3.425746333125,-0.022981916875000064
Y3P2_s062,Y3P2,20.75718115225356,40.22915470523844,38.90898391308875,27.756238919315116,28.553074477998607,62,-7.3122406005859375,0.02756977081298828,-7.313721451499999,0.03197485916666842
Li4P1_s062,Li4P1,63.387728415576646,55.901227332231926,59.70070663502931,54.50603545645816,57.98496548860793,62,-3.1272600173950194,0.042281341552735,-3.1337354435,0.03332182083333368
Y5P4_s045,Y5P4,0.0,34.05766458658368,24.897866153134817,0.0,30.62646679091953,59,-7.4376576741536455,0.0013780593872070312,-7.429670476666668,0.013717522592592069
Sc5N4_s021,Sc5N4,0.0,0.0,32.641769056323525,0.0,29.80368184140229,59,-8.898599412706163,0.014172111461364878,-8.891044405555554,0.036607696241832244
Sc5N4_s033,Sc5N4,0.0,0.0,22.45683526309507,0.0,24.311095958957576,59,-8.924005296495226,-0.011233772327697622,-8.886104901666666,0.04154720013072044
Sc4N3_s008,Sc4N3,0.0,23.211743785000184,39.6719724957866,0.0,36.87667642455128,59,-8.7989501953125,0.02008998293836406,-8.796028287142857,0.038938707626051894
Y4N3_s008,Y4N3,0.0,34.3340756183593,42.42514835974499,5.307975311339731,38.76486759270762,59,-8.67344502040318,0.036474091666086395,-8.710487265714287,0.003291777619045533
Y3N2_s005,Y3N2,49.74911539241366,12.383644876067128,42.227669368550266,25.133345678569984,39.75443283802756,59,-8.5373779296875,0.021665382385254617,-8.564223923,-0.00026540833333399405
Y5N4_s011,Y5N4,0.0,30.80835962420115,35.00226303089218,5.006523443001098,31.367840085659356,59,-8.766333685980904,0.02740531497531329,-8.804490628888889,-0.007477958518519401
Cs3Br2_s019,Cs3Br2,53.47218296295263,55.74240762399716,55.43676603912713,54.20365104982975,0.0,59,-2.596285820007324,0.0108581423759464,-2.583602206,0.03712917241379321
Rb4Cl3_s019,Rb4Cl3,0.0,49.663803257478925,45.95971014221858,42.86361866794384,0.0,59,-2.984531947544643,0.02035079683576324,-2.9682777457142855,0.04529101892857179
Li6P1_s027,Li6P1,0.0,42.10975003786028,41.61187485190316,41.68800162972813,55.87229429502021,59,-2.7672691345214844,0.041059357779366756,-2.773384645714286,0.03420564785714264
Y5N4_s036,Y5N4,32.236572904159964,4.00102262848112,24.43416901672604,10.579649103375685,23.701837182742945,59,-8.784344991048178,0.00939400990803918,-8.811698287222221,-0.014685616851851435
Sc4N3_s007,Sc4N3,0.0,0.0,28.097550616012377,0.0,28.84299106812904,59,-8.830899919782366,-0.011859741531502266,-8.793734562142857,0.04123243262605136
Y4P3_s014,Y4P3,0.0,41.8242555794392,32.19722830489399,0.0,37.61158614752957,59,-7.399566650390625,0.004031453813825081,-7.389383172857143,0.019114937619047367
Rb6O1_s009,Rb6O1,0.0,60.82484096186342,58.29372714196795,89.7118657167576,0.0,58,-1.9347889763968331,0.010269539696829755,-1.929638142857143,0.0364339798214286
K6O1_s009,K6O1,0.0,33.19120380420764,34.52303091556493,38.734615778925566,0.0,58,-2.106271743774414,-0.025281838008335722,-2.0588996028571427,0.036376161142857466
Cs3S1_s086,Cs3S1,0.0,47.2323391374953,48.39603765328328,55.29587267450593,45.500250052979176,58,-2.391009569168091,0.02028559148311615,-2.37900469,0.04593765551724127
Na6O1_s020,Na6O1,0.0,89.75292096972952,69.95076533937683,88.54760491199815,87.68052113723932,58,-2.313300813947405,0.03852013179234115,-2.3178493,0.04096781339901456
Cs8Cl7_s004,Cs8Cl7,30.90155004910931,31.59251441178253,31.925817083716908,30.710864389143044,0.0,47,-3.141152191162109,0.004593145847320734,-3.1364621653333336,0.021822990137930987
Y8P7_s004,Y8P7,0.0,21.64202507846117,20.68039993488227,0.0,20.67872870592228,47,-7.501874796549479,-0.013226381937662346,-7.498158589333333,-0.005924745777776685
Cs4Br3_s001,Cs4Br3,0.0,61.657791173677424,63.019317326451215,59.63184469682447,0.0,47,-2.6876882825578963,0.04556157759257706,-2.7052057314285713,0.03876343315270958
Cs6Br5_s010,Cs6Br5,0.0,42.03459117945302,43.01575902367348,40.58872292219053,0.0,47,-2.8318618427623403,0.01602974263104473,-2.8314318272727275,0.024571688369905864
K10Br9_s013,K10Br9,0.0,25.303940379878725,25.673490613813897,25.340476418052653,0.0,47,-3.024505615234375,0.0035183994393594986,-2.985136667894737,0.043637292473683864
Na11O5_s031,Na11O5,0.0,38.74358954917504,38.757846283547046,39.77387621979253,0.0,47,-3.559396743774414,0.030401185154914856,-3.553801558125,0.035612091465516915