formula,composition,e0025,e05,e10,band0,band1,spacegroup,mattersim_energy_per_atom,mattersim_e_hull,vasp_energy_per_atom,dft_e_hull
Y8P7_s012,Y8P7,0.0,29.608557869645807,23.755857688499702,0.0,31.40595371318628,225,-7.518631998697916,-0.029983584086100024,-7.491163771833333,0.001070071722224064
Sc8N7_s007,Sc8N7,0.0,0.0,29.0918272242006,0.0,29.15828673429699,225,-9.024833170572917,0.01905550638834619,-9.021471394333334,0.03581124433333471
Li4N1_s021,Li4N1,60.85930045540139,18.012904883907225,15.760720064964785,52.73327903266821,0.0,194,-3.4670490264892577,0.041209793090820845,-3.4767720939999998,0.010899197333333888
Ca5P3_s021,Ca5P3,0.0,24.271368711791368,22.783124015163736,24.18767494014632,0.0,193,-4.324450969696045,-0.2295244336128235,-4.302358878125,-0.20101219374999957
Y4P3_s032,Y4P3,27.757823987000567,33.91058895370265,31.304990262501924,10.940706059698975,28.18574206495196,186,-7.385074615478516,0.018523488725934456,-7.382366901428571,0.026131209047619564
Y2S1_s083,Y2S1,22.511094002363524,46.33121289050887,59.99149612385387,33.58709301386641,55.9899575165522,186,-6.9946238199869795,0.009568532307942412,-6.9854204200000005,0.033644837777776715
Sr2N1_s008,Sr2N1,0.0,57.63868342226728,56.82274912693877,63.55017796406563,0.0,186,-4.438727060953776,-4.2385525222954357e-07,-4.415296978333333,0.036135828333333286
Ba2N1_s014,Ba2N1,52.8162994103817,56.92415423763273,55.66838086392541,59.48610636484375,0.0,186,-4.440442721048991,1.0596381283534129e-07,-4.44353432,0.019744453333332856
Y3P2_s006,Y3P2,0.0,44.51887422069104,41.07655845546361,13.502890184538696,36.92878519375018,186,-7.310333251953125,0.02947711944580078,-7.3110195739999995,0.03467673666666826
Ca3P1_s037,Ca3P1,79.13364944269952,59.30696968508583,73.36214874116783,23.665629365446748,70.5213381291633,167,-3.452727953592936,-0.057492852210998535,-3.404991899166667,-0.0022274829166666343
Ba2N1_s001,Ba2N1,0.0,58.00560039818091,56.593060326208,55.82889478769415,0.0,166,-4.440441555447048,1.2715657558004523e-06,-4.444491196666666,0.018787576666666972
Rb4Cl3_s025,Rb4Cl3,0.0,35.959899300353754,22.12126421807172,39.35120087557779,39.35441680196723,166,-2.9787601289295016,0.02612261545090444,-2.9709208214285714,0.04264794321428589
Li7F6_s001,Li7F6,28.138452488935236,28.138452488935236,27.86270800255697,28.571801010039216,0.0,166,-4.610067123021835,0.023470756335135512,-4.572595810769231,0.04668642358974395
Sr2N1_s002,Sr2N1,0.0,60.53294621452886,57.493720115968,63.31130771925404,63.655734840097935,166,-4.438726213243273,4.2385525134136515e-07,-4.417298036666667,0.03413476999999965
Na5Cl4_s002,Na5Cl4,0.0,33.20028759751943,33.20028759751943,33.831898377613115,0.0,166,-3.1234088473849826,0.03044671482510042,-3.1227408351851853,0.03589313519795656
Sc4N3_s006,Sc4N3,0.0,0.0,33.478418331961784,0.0,32.11593745694123,166,-8.837650844029017,-0.01861066577815329,-8.809295643809524,0.02567135095938511
Sr2N1_s090,Sr2N1,0.0,40.94832159244413,38.11211472806273,40.62767869910122,41.52423700428484,166,-4.4387257893880205,8.477105035709087e-07,-4.415718265,0.035714541666666655
Y4N3_s001,Y4N3,0.0,35.557897694984646,35.08457797316639,26.6268079324391,24.58563032135408,166,-8.700158255440849,0.009760856628417969,-8.73321393904762,-0.019434895714287137
Ca3P1_s110,Ca3P1,29.375971470234592,16.13144400095822,16.651763650465814,42.86954766747843,55.832360451568654,166,-3.464592615763346,-0.06935751438140869,-3.4162017949999997,-0.013437378749999507
Rb4Br3_s004,Rb4Br3,0.0,0.0,41.254450475542455,40.53509754369374,0.0,166,-2.7377577282133556,0.02480904261271144,-2.7332293057142856,0.03855557321428593
Sc4N3_s035,Sc4N3,0.0,33.51667557712732,34.23720243392736,20.354043929710063,31.68103263644221,166,-8.840302240280877,-0.02126206203001324,-8.786687021904763,0.04827997286414565
Cs4Cl3_s001,Cs4Cl3,0.0,36.25561026697182,39.07158388546512,36.65649975820286,0.0,166,-2.944719768705822,0.012937083130791116,-2.9440781695238094,0.029481860771757518
Cs4Cl3_s018,Cs4Cl3,0.0,37.53278900678799,39.07783058016634,38.716862796505694,0.0,166,-2.9447199503580728,0.012936901478540541,-2.943437327142857,0.030122703152709818
Na4Cl3_s008,Na4Cl3,0.0,40.22623953071559,40.092643737862005,40.8542666758898,0.0,166,-3.040948232014974,0.04703084627787257,-3.0485941514285715,0.044464509064039426
Li7N2_s005,Li7N2,24.56011110566328,23.774304143939915,0.0,47.1542473862949,0.0,166,-3.6664742363823786,0.019891526963975448,-3.6681756803703705,-0.00508789740740756
Na4Cl3_s019,Na4Cl3,0.0,35.80943286503261,35.66233896272505,41.3910964447036,0.0,166,-3.0409487769717263,0.047030301321120405,-3.0467234428571426,0.04633521763546833
Rb5Cl4_s042,Rb5Cl4,0.0,31.389341057407627,32.248900355844015,32.38196178625622,32.39952960985272,166,-3.0634485880533853,0.01804971694946289,-3.0529098674074073,0.035956478425926086
Rb4Cl3_s012,Rb4Cl3,0.0,38.89418466303383,39.86689817955641,40.00401040035214,40.093586634231634,166,-2.978761218843006,0.026121525537400103,-2.9714013333333336,0.04216743130952372
Li8F7_s019,Li8F7,24.727554745338,24.727554745338,24.45234814170932,25.05111636358617,0.0,166,-4.644671291775174,0.019180382622612235,-4.605654516444445,0.04374282199999957
Li5N1_s013,Li5N1,0.0,19.75947872359056,72.67212922459647,68.8406571270972,46.509154311955335,166,-3.1997532314724393,0.04134517245822478,-3.197715016666667,0.02683153722222187
Li4N1_s019,Li4N1,78.88292184072138,0.0,0.0,71.20561830040998,0.0,166,-3.472936248779297,0.035322570800781605,-3.476790997333333,0.010880294000000568
Na4Cl3_s011,Na4Cl3,0.0,42.01486708197263,42.01486708197263,42.7269409797934,0.0,166,-3.040948232014974,0.04703084627787257,-3.048611620714286,0.04444703977832498
Sr2N1_s029,Sr2N1,26.716038100936373,26.524936853493003,23.144535020577145,27.64820447953735,28.128764290004625,166,-4.4387257893880205,8.477105035709087e-07,-4.415368425925926,0.03606438074074081
Sr2N1_s049,Sr2N1,0.0,41.2498919415558,38.413271610717295,42.017420107634585,41.95329872190062,166,-4.4387257893880205,8.477105035709087e-07,-4.415711912777778,0.03572089388888866
Na7Br6_s024,Na7Br6,0.0,22.868670658769258,22.62185803978108,23.273273284011907,0.0,166,-2.8974464612129407,0.02328876959971904,-2.898905532307692,0.02504781949602153
Rb5Br4_s001,Rb5Br4,0.0,28.16744761929112,28.88061033286232,28.91318488535206,28.924728478216267,166,-2.8103550098560475,0.019852655905264083,-2.805438645925926,0.03268885546296296
Rb4Cl3_s040,Rb4Cl3,0.0,40.63424778225699,41.690361697304326,41.87702473384887,0.0,166,-2.978760310581752,0.026122433798653866,-2.9713948571428572,0.04217390750000005
Rb4Cl3_s003,Rb4Cl3,0.0,40.90071146311087,42.00318384915449,42.15735252285677,42.24231166246536,166,-2.9787601289295016,0.02612261545090444,-2.971391273809524,0.04217749083333322
Na7I6_s019,Na7I6,0.0,21.112988496584723,20.776451006505948,21.697902258360404,0.0,166,-2.5643187302809496,0.02098884949317359,-2.5535623726923076,0.03439413603448305
Na7I6_s002,Na7I6,0.0,21.019642361837924,20.685905753805397,21.6467679684234,0.0,166,-2.564319904033954,0.02098767574016902,-2.553225886153846,0.03473062257294446
Y4P3_s008,Y4P3,0.0,34.612938396721006,31.2701004264314,19.94073062720033,29.2755300773596,166,-7.385269891648066,0.018328212556384393,-7.373316274761904,0.03518183571428679
Y4P3_s022,Y4P3,16.34222366342001,33.346873120198744,30.72655803919674,13.766417047359855,27.923462665703635,166,-7.384310767764137,0.01928733644031322,-7.381406226428572,0.027091884047618642
Rb4Cl3_s027,Rb4Cl3,0.0,38.32399532611683,39.28962503054167,39.533331259979306,39.59458858040798,166,-2.978760492234003,0.026122252146402847,-2.9713235833333336,0.042245181309523705
Cs3I2_s068,Cs3I2,0.0,0.0,49.92545528379771,49.869095969238366,0.0,166,-2.3687370300292967,-0.010748112201690585,-2.342397214,0.04119618041379303
Na5Br4_s001,Na5Br4,0.0,31.83641735875424,31.467806624550956,32.40601731800959,0.0,166,-2.824887028446904,0.0361659350218595,-2.827287195185185,0.0373540063090676
K5Br4_s013,K5Br4,0.0,33.368901230648525,33.94618337406216,34.17064410024725,0.0,166,-2.8834943418149597,0.024319617836563445,-2.8631300425925925,0.04722570707407403
Ba2P1_s001,Ba2P1,63.23360426152521,58.28417645183782,57.90862135309249,62.05875205340813,0.0,166,-3.895776112874349,0.023755967617034468,-3.9066333822222226,-0.0045425963888892085
Cs4Br3_s036,Cs4Br3,0.0,37.39586699823543,38.748490063003466,36.53678339552567,0.0,166,-2.7164430164155506,0.016806843734922694,-2.7182493528571428,0.025719811724138175
Rb8O3_s018,Rb8O3,47.29775665777497,48.88027371316921,44.15951152938149,49.86298930581042,50.1185290235692,166,-2.8237457275390625,-0.004283003373579675,-2.812048186060606,0.006200758848485144
Y4P3_s001,Y4P3,0.0,30.87545192543837,29.68689354760601,0.0,29.251440932215697,166,-7.384860084170387,0.01873802003406322,-7.394519872380952,0.01397823809523846
Y2S1_s034,Y2S1,0.0,0.0,35.755746586432444,4.195200001449333,77.79269211806937,166,-6.994027879503038,0.010164472791883483,-6.987646882222222,0.031418375555555045
Y2S1_s077,Y2S1,43.98179109681793,37.51224826234039,59.4424778110469,24.217571931988164,46.53585855758569,166,-6.994608985053168,0.009583367241753571,-6.989815386666667,0.029249871111110437
Ba6O5_s015,Ba6O5,0.0,20.668161608905365,20.45139302316349,20.95824157495622,0.0,164,-5.520422848788175,0.04277555509047115,-5.507265249545455,0.043196726818180764
K6Br5_s004,K6Br5,0.0,28.012947773682207,28.508809981990417,28.69921355261265,0.0,164,-2.931741541082209,0.017599528486078153,-2.9083367727272726,0.042927086090908784
K6Cl5_s004,K6Cl5,0.0,28.770122884450505,29.326616071670884,29.583360593965413,0.0,164,-3.197522596879439,0.019491228190334997,-3.1741369863636364,0.04562841336363599
Li6P1_s020,Li6P1,22.17101001419958,23.90307044887417,16.012786031978006,15.386841457405422,27.95682334800737,164,-2.7659089224679128,0.042419569832938375,-2.764311731071429,0.04327856249999984
Li7N1_s008,Li7N1,61.15615796775224,20.240727622948505,21.425612236511853,38.77809402366457,74.95885962300528,164,-2.8608241081237793,0.04632377624511719,-2.86079860125,0.03484203083333348
Na6Cl5_s002,Na6Cl5,0.0,27.62696039785132,27.62696039785132,28.175544762958687,0.0,164,-3.17252592606978,0.02325103499672654,-3.1710713254545455,0.02929238758620656
Sc3N2_s004,Sc3N2,0.0,27.058000825821203,44.31709564223554,0.0,43.22050708323593,164,-8.666605377197266,-0.016281621596393236,-8.643923478000001,0.024210324117646564
Sc6N5_s003,Sc6N5,5.188650915003683,3.3456544936805965,22.9318317960428,0.0,21.380959715976623,164,-8.987498890269887,-0.015080145973573877,-8.951095493636364,0.035538039906416685
Y3N2_s002,Y3N2,0.0,47.3705828282676,46.84588825596786,35.90702461694926,43.83127747114662,164,-8.537065887451172,0.02197742462158203,-8.573251594,-0.00929307933333412
Rb6Br5_s008,Rb6Br5,0.0,26.471432525978813,27.13347209647829,27.22583595597821,0.0,164,-2.8588529066606,0.014398964968594719,-2.8513397881818183,0.029005745681817796
Sr2N1_s001,Sr2N1,56.48732556089172,59.18784004462516,56.880190272320384,62.91366811365632,0.0,164,-4.4387251536051435,1.4834933805829564e-06,-4.414795106666666,0.036637699999999995
Na6Br5_s002,Na6Br5,0.0,26.871952866641323,26.58390487333403,27.35669172941456,0.0,164,-2.8678829886696557,0.028436769138683093,-2.86961153,0.03007776031347964
Ca3P1_s046,Ca3P1,0.0,68.10597591436502,71.21472711162137,61.38898046212877,66.26439993202627,164,-3.4647910594940186,-0.06955595811208104,-3.3766082875,0.026156128750000285
Y5N4_s006,Y5N4,0.0,8.328185381278969,28.58763641776373,0.0,25.14677342891348,164,-8.788247002495659,0.005491998460557923,-8.800536475555555,-0.00352380518518558
Ca3P1_s002,Ca3P1,59.60903901222174,65.50154185942716,68.05955204098741,66.04523394187952,56.830116175090886,164,-3.4647915363311768,-0.06955643494923924,-3.42314472,-0.020380303749999662
Y3N2_s007,Y3N2,0.0,46.718606949825855,46.20591017333582,30.101696627573027,43.524853173555975,164,-8.53135986328125,0.027683448791504972,-8.564940909,-0.0009823943333344687
Na9Cl7_s016,Na9Cl7,0.0,37.16829520063652,37.04041620980208,38.03665261380179,0.0,164,-3.0866096019744873,0.03842499852180481,-3.089480536875,0.04046423543103472
Rb6Cl5_s008,Rb6Cl5,0.0,27.287909029868217,28.008505736768573,28.130786323449687,0.0,164,-3.1175641146573154,0.012689547105269039,-3.104730266363636,0.03205272204545473
Y3P2_s007,Y3P2,0.0,43.06945067870876,40.315666520102575,0.0,39.26785630656956,164,-7.304850769042969,0.034959602355956854,-7.301958849,0.0437374616666677
Ba6S5_s022,Ba6S5,0.0,22.969822196325023,22.385035713290502,22.415070138636956,0.0,164,-4.7753823020241475,0.034132491458546355,-4.7788403181818175,0.03765881272727256
Ba2N1_s002,Ba2N1,0.0,58.227798846972114,56.57337714008569,57.055536079933646,0.0,164,-4.440441767374675,1.0596381292415913e-06,-4.444830706666667,0.018448066666666207
Y5P4_s002,Y5P4,26.527283980495618,28.12569814457881,25.60716580287251,14.96815631392815,23.303706204308973,164,-7.425631205240886,0.013404528299966856,-7.414027838888889,0.029360160370370814
K5Br4_s002,K5Br4,0.0,30.92442540648399,30.97570180506507,34.13567885816552,0.0,164,-2.8834925757514105,0.024321383900112625,-2.8628141155555555,0.04754163411111101
Y3P2_s001,Y3P2,0.0,43.32261233160797,39.67302247707629,0.0,40.18372308466886,164,-7.309998321533203,0.029812049865722834,-7.327528556,0.018167754666667868
Ba2P1_s025,Ba2P1,58.2338577476799,58.25904497686308,57.35505957946009,59.39109286351078,0.0,164,-3.895776112874349,0.023755967617034468,-3.9035597699999998,-0.0014689841666664094
K6I5_s011,K6I5,0.0,26.295772995372342,26.702146949879506,26.856166867312197,0.0,164,-2.6300619298761543,0.01603151451457574,-2.605491806363636,0.04834487972727297
Y2S1_s035,Y2S1,40.48943077033351,60.388139925294205,66.35877390396897,58.61898281611663,67.19618429694138,164,-6.995373407999675,0.0088189442952471,-6.988772133333334,0.030293124444443542
K6I5_s008,K6I5,0.0,26.037761650950408,26.44020137476787,26.60542430620458,0.0,164,-2.630064010620117,0.016029433770612833,-2.6054755436363637,0.04836114245454537
Na6I5_s006,Na6I5,0.0,24.930747517999524,24.538011982129408,25.69898441573446,0.0,164,-2.5363903045654297,0.029584039341319812,-2.527796087272727,0.04098722122257037
Y3P2_s011,Y3P2,0.0,38.35863101062406,40.19267053898212,0.0,40.441363071068245,164,-7.304560852050781,0.035249519348144354,-7.319674233000001,0.026022077666667087
Li9F8_s002,Li9F8,23.91508274499504,22.601985732991977,21.41273378801245,22.254658392756813,0.0,164,-4.6709303014418655,0.016102510340073373,-4.63086271,0.04156382568627581
Li6N1_s005,Li6N1,42.53623423864206,42.4965890470428,0.0,77.51220029867261,0.0,164,-3.005650384085519,0.04461915152413454,-3.00367119,0.03292912285714289
Sc5N4_s009,Sc5N4,26.29851881256096,27.711376999390676,27.464644540679583,16.384167911704353,25.352499738256544,164,-8.931081136067709,-0.018309611900180656,-8.879336393333334,0.04831570846405242
Rb6O1_s020,Rb6O1,0.0,32.10789476947991,27.50107174023637,90.20421774042072,82.74012008518595,163,-1.9347870690482003,0.010271447045462567,-1.9249801692857142,0.04109195339285732
Rb6O1_s003,Rb6O1,90.08265188852928,91.2272479941478,91.3855390991666,90.64173581445492,90.33247812855694,162,-1.9347869328090124,0.010271583284650498,-1.9209781014285716,0.04509402124999995
Cs6O1_s027,Cs6O1,65.57282854327036,87.8007335016059,88.22392829464826,87.42226746515489,89.46296024440966,162,-1.8343193871634347,0.03654624394008077,-1.8605731114285715,0.04601117088669926
K6O1_s014,K6O1,0.0,91.87878237589854,91.6313759497555,91.397632227854,89.83860619451939,162,-2.1062680653163364,-0.025278159550258028,-2.0470114628571427,0.0482643011428574
Ca2P1_s051,Ca2P1,29.18410644112453,31.75381127191528,29.755163877710483,22.20637882905817,29.191829714952256,160,-3.998729564525463,-0.13703350667600311,-3.9075049574074074,-0.03901902907407395
Ba2P1_s040,Ba2P1,60.6105356338397,57.981837344842326,57.45025404079266,59.45945130214877,62.0363765512251,160,-3.895776536729601,0.023755543761782683,-3.9053188355555557,-0.003228049722222348
Na8Cl7_s007,Na8Cl7,0.0,20.880700062230662,20.880700062230662,21.19077201997794,0.0,160,-3.2265567355685763,0.01952590412563726,-3.225675296222222,0.024764108007663044
Na4Cl3_s009,Na4Cl3,0.0,20.35416979462436,20.233889170013423,21.37778692632696,0.0,160,-3.042423793247768,0.045555285045078886,-3.0438931295238096,0.049165530968801274
Y2S1_s033,Y2S1,26.69655665677729,14.876966299491912,31.102721672641685,11.651137220029709,40.58698895935078,160,-6.983162350124783,0.021030002170139284,-6.991333843888889,0.027731413888888667
Y2S1_s042,Y2S1,0.0,13.058021350135965,26.44709654434915,6.824220645718855,23.86911459659435,156,-6.994869232177734,0.0093231201171875,-6.986936563333334,0.03212869444444344
Y2S1_s047,Y2S1,26.63434837532026,38.45433433698918,41.70094817128975,29.2912802178394,38.1410510528702,156,-6.985859764946832,0.01833258734809018,-6.983801031111111,0.03526422666666651
Na6Cl5_s015,Na6Cl5,0.0,27.699151887278266,27.699151887278266,28.12601547783959,0.0,156,-3.1672990972345527,0.02847786383195361,-3.1663821090909092,0.03398160394984284
Ca5P2_s005,Ca5P2,61.726595514278046,39.61997795816076,40.98199258496839,35.27916959895831,35.51160146513187,156,-3.693262917654855,-0.09811597778683634,-3.6435003828571433,-0.04114103285714332
Ca5P2_s013,Ca5P2,0.0,20.023275615104467,37.21717333938389,3.2068691730032373,44.61752103430394,156,-3.693263190133231,-0.0981162502652122,-3.603555022857143,-0.0011956728571429487
Y4N3_s032,Y4N3,0.0,25.58335199909445,35.083765263374175,14.640578387472852,31.23368592434636,156,-8.665627615792411,0.04429149627685547,-8.685598138571429,0.02818090476190349
Y3N2_s030,Y3N2,20.898988549807523,35.2788362120673,38.36773630259008,26.37110002101718,28.01251451618557,156,-8.527268981933593,0.03177433013916087,-8.545307928666666,0.01865058599999969
Na6Br5_s017,Na6Br5,0.0,26.223980469629137,26.05361329273077,26.71119036352759,0.0,156,-2.864214637062766,0.0321051207455727,-2.866099639090909,0.03358965122257063
Rb4Br3_s006,Rb4Br3,0.0,38.88051024934271,39.96175286074511,39.61221505631964,0.0,156,-2.726008551461356,0.03655821936471115,-2.7247484285714285,0.04703645035714299
Rb7Br5_s008,Rb7Br5,0.0,44.2595580253392,45.547957054366265,44.88246062464346,0.0,156,-2.6834545135498047,0.0283815860748291,-2.678951221666667,0.04307669041666662
Y4N3_s022,Y4N3,10.133395757949248,28.17878685997642,29.58176150218668,19.947294940005783,31.65998451732162,156,-8.69232177734375,0.017597334725516944,-8.713059885,0.0007191583333323592
Y5P4_s028,Y5P4,21.925473082872102,26.740507043458024,24.04925029079823,4.507177772583809,23.03061346403526,156,-7.410132514105903,0.02890321943494989,-7.400770997222223,0.04261700203703711
Li4N1_s028,Li4N1,0.0,7.19919918896027,33.48924179205076,10.3669354532959,26.42288011488956,156,-3.478102111816406,0.030156707763672408,-3.4796810093333335,0.007990282000000182
Na7I6_s022,Na7I6,0.0,21.15968663286265,20.830744380781457,21.78859289100837,0.0,156,-2.5565000680776744,0.028807511696448795,-2.5500975815384614,0.03785892718832917
Ba2P1_s038,Ba2P1,19.583857675561685,57.48736937844806,57.12683463170919,59.291488316714826,61.55439401560552,156,-3.895776112874349,0.023755967617034468,-3.9043580344444444,-0.00226724861111105
Cs3Cl2_s023,Cs3Cl2,0.0,66.44344027732461,54.387709018146126,49.29919121301079,0.0,156,-2.797379493713379,0.019210994243621826,-2.7950424519999997,0.039973734413793593
Na7Cl6_s016,Na7Cl6,0.0,23.938660078170702,23.938660078170702,24.30803378154022,0.0,156,-3.2030633779672475,0.02173608999985932,-3.201915036153846,0.02733849872679084
Na7Cl6_s015,Na7Cl6,0.0,23.51288699324022,23.51288699324022,24.00508132531923,0.0,156,-3.196966317983774,0.02783314998333264,-3.1967478961538465,0.032505638726790576
K7Cl6_s022,K7Cl6,0.0,24.2643614736296,24.745752153247043,24.69487680485521,0.0,156,-3.230623098520132,0.019258306576655393,-3.2037895884615386,0.04842760284615366
Li9N2_s005,Li9N2,19.38762895286903,30.474086457546928,20.605090602296137,24.29063159958993,42.61774148923394,156,-3.323272011496804,0.03926294500177541,-3.3243182336363635,0.0198304736363637