formula,composition,e0025,e05,e10,band0,band1,spacegroup,mattersim_energy_per_atom,mattersim_e_hull,vasp_energy_per_atom,dft_e_hull
Y8N7_s001,Y8N7,0.0,24.68005231157855,23.528626308842817,0.0,21.5655841612381,47,-8.894119262695312,0.016967582702635653,-8.936776502666667,-0.023236754444447172
Na8Br7_s002,Na8Br7,0.0,29.861649689456293,30.32106459539347,30.027198653824023,0.0,47,-2.9191083272298175,0.01953158378601083,-2.9034813313333334,0.03826566556321831
Rb6Br5_s005,Rb6Br5,0.0,42.70290507389522,43.38382375007132,42.0916435082904,0.0,47,-2.848078814419833,0.025173057209361804,-2.838473868181818,0.041871665681818104
Sc8N7_s001,Sc8N7,0.0,24.112107998232418,22.629292671599323,0.0,21.43975245191682,47,-9.034781901041667,0.009106775919596188,-9.029416934666667,0.027865704000001656
Sc6N5_s013,Sc6N5,0.0,24.83081371961078,27.48075490676009,0.0,24.135540626634928,47,-8.95726151899858,0.01515722529773278,-8.952092321818183,0.03454121172459779
K10Cl9_s007,K10Cl9,0.0,25.99561796450176,27.2251538817914,26.5780065286927,0.0,47,-3.299020064504523,0.007947137481287392,-3.2619833621052634,0.046597467210526045
Rb8Cl7_s022,Rb8Cl7,33.908610531411355,35.77542257569328,36.39066512284714,35.40813849429077,0.0,47,-3.1875829060872394,0.0011771837870284685,-3.1562813113333332,0.03800164816666651
Na8Cl7_s003,Na8Cl7,0.0,29.44199185075471,30.875501732763997,31.21201363942978,0.0,47,-3.2221036275227863,0.023979012171427172,-3.2102429266666666,0.04019647756321865
Y6P5_s020,Y6P5,0.0,26.467384744938503,19.33841412081312,0.0,21.85494489169407,47,-7.465068470348012,-0.0034815181385390304,-7.458566896363636,0.0070237593939399545
K8Br7_s005,K8Br7,33.20775269678957,36.67809342844956,37.38001116086792,36.61723616508342,0.0,47,-2.997456359863281,0.0017172416051232098,-2.951563252666667,0.04879033713333314
Na10Br9_s026,Na10Br9,0.0,23.73896318838036,24.08106454607187,23.86427951190983,0.0,47,-2.950815301192434,0.012325751154046216,-2.936618827368421,0.02947736807622503
Na8Cl7_s028,Na8Cl7,0.0,38.63518675681042,39.17022451882943,38.83527341534503,0.0,47,-3.2257395426432294,0.020343097050984138,-3.210560540666667,0.039878863563218125
Na10I9_s029,Na10I9,21.013891079138343,21.528092222221037,21.85293112703796,22.227820124752363,0.0,47,-2.6271161531147205,-0.0082297952551591,-2.5847480668421055,0.03650926333938287
Cs6Cl5_s002,Cs6Cl5,41.07788714860817,42.00048792648752,42.45249854353363,40.806816368739504,0.0,47,-3.070833379572088,0.015065621245990979,-3.0699907509090907,0.029518228369906474
Rb6Cl5_s002,Rb6Cl5,0.0,44.04365784434288,44.67206673251782,43.29385375669862,0.0,47,-3.1062008250843394,0.024052836678245093,-3.091020682727273,0.04576230568181794
Y6N5_s011,Y6N5,0.0,29.480235831757025,29.92511624409492,0.0,25.50718410817021,47,-8.823330965909092,0.023747964338822314,-8.863993286363636,-0.014013762424243126
Y4N3_s011,Y4N3,0.0,25.020910625442028,46.411331933921865,0.0,37.70713552211076,47,-8.660696302141462,0.049222809927805145,-8.69671055,0.017068493333331602
Na8Br7_s006,Na8Br7,32.19449472326887,35.61537757391072,36.90300877248015,36.889243653118456,0.0,47,-2.9250918070475262,0.013548103968302083,-2.904037648,0.03770934889655164
Ca7P4_s015,Ca7P4,20.68733279182407,23.25458874450385,24.039306002112927,26.93870943270588,0.0,42,-4.203365325927734,-0.172047102090084,-4.1253659940909095,-0.08752678863636376
Ba2N1_s032,Ba2N1,52.76226466465827,56.80185566876037,55.61480544171108,59.42523758937994,0.0,36,-4.44044303894043,-2.1192762567068257e-07,-4.445609276666667,0.017669496666666618
Ba2P1_s003,Ba2P1,59.356727406790725,56.31838108789791,56.220962396932194,54.10002209020588,59.8044843999983,36,-3.8957764307657876,0.023755649725595962,-3.903181268333333,-0.0010904824999995455
Y3N2_s075,Y3N2,0.0,33.514366271215295,26.862384391090536,24.607897883128206,8.193716054782318,35,-8.517308807373047,0.04173450469970774,-8.545994659,0.017963855666666362
Ca5P2_s009,Ca5P2,7.978404265974381,48.265359365838,48.68438768588717,30.181724900317853,48.22001342262986,31,-3.6662510463169644,-0.07110410644894571,-3.6017246985714286,0.0006346514285713312
K10Br9_s012,K10Br9,0.0,25.417825666304623,25.79548496460705,25.463931407877244,0.0,25,-3.0245052136872945,0.003518800986439974,-2.9852866231578945,0.043487337210526444
Na8Br7_s024,Na8Br7,0.0,29.726589396259698,30.18467994100758,29.87898996704224,0.0,25,-2.919108581542969,0.019531329472859404,-2.903500284,0.03824671289655157
Na8I7_s013,Na8I7,26.196873794157906,26.80064399688215,27.207187933601755,27.740427972609588,0.0,25,-2.5984130859375,0.0010722001393634883,-2.5550321400000002,0.04698471556321815
Ba6Br11_s029,Ba6Br11,0.0,35.242183222839046,35.242183222839046,33.42940215295072,0.0,21,-3.9010041180778954,-0.009579612928278358,-3.872706871176471,0.023063186470587915
Cs4S1_s015,Cs4S1,75.29244016568605,82.17538934102731,82.86427263136855,40.37291143993807,79.51136801996581,18,-2.096885871887207,0.00048253536224374116,-2.07205828,0.04697607082758681
Cs5Br3_s005,Cs5Br3,0.0,61.148045460387465,61.27723801644648,58.21693696566286,0.0,12,-2.476233959197998,0.02056734263896942,-2.467476915,0.045421400517241306
Li9N2_s020,Li9N2,14.986316568941756,27.82048993720978,20.654766259671,45.80926438374194,42.70462707499966,12,-3.323844562877308,0.03869039362127147,-3.323640330454545,0.02050837681818196
K8Cl7_s011,K8Cl7,0.0,21.55464638211009,21.976196257458177,22.15992787234308,0.0,12,-3.2615392049153646,0.01244509220123291,-3.2360567906666664,0.03995838113333372